LAMMPS data file

64 atoms
1 atom types

0.0000000000000000e+00 10.9465 xlo xhi
0.0000000000000000e+00 10.9465 ylo yhi
0.0000000000000000e+00 10.9465 zlo zhi

Masses

1 27.9

Atoms # atomic

1 1 0.0200000000000000000 0.0000000000000000000 0.0000000000000000000 0 0 0
2 1 1.3683125000000000426 1.3683125000000000426 1.3683125000000000426 0 0 0
3 1 5.4732500000000001705 0.0000000000000000000 0.0000000000000000000 0 0 0
4 1 6.8415625000000002132 1.3683125000000000426 1.3683125000000000426 0 0 0
5 1 2.7366250000000000853 2.7366250000000000853 0.0000000000000000000 0 0 0
6 1 4.1049375000000001279 4.1049375000000001279 1.3683125000000000426 0 0 0
7 1 8.2098750000000002558 2.7366250000000000853 0.0000000000000000000 0 0 0
8 1 9.5781875000000002984 4.1049375000000001279 1.3683125000000000426 0 0 0
9 1 0.0000000000000000000 5.4732500000000001705 0.0000000000000000000 0 0 0
10 1 1.3683125000000000426 6.8415625000000002132 1.3683125000000000426 0 0 0
11 1 5.4732500000000001705 5.4732500000000001705 0.0000000000000000000 0 0 0
12 1 6.8415625000000002132 6.8415625000000002132 1.3683125000000000426 0 0 0
13 1 2.7366250000000000853 8.2098750000000002558 0.0000000000000000000 0 0 0
14 1 4.1049375000000001279 9.5781875000000002984 1.3683125000000000426 0 0 0
15 1 8.2098750000000002558 8.2098750000000002558 0.0000000000000000000 0 0 0
16 1 9.5781875000000002984 9.5781875000000002984 1.3683125000000000426 0 0 0
17 1 2.7366250000000000853 0.0000000000000000000 2.7366250000000000853 0 0 0
18 1 4.1049375000000001279 1.3683125000000000426 4.1049375000000001279 0 0 0
19 1 8.2098750000000002558 0.0000000000000000000 2.7366250000000000853 0 0 0
20 1 9.5781875000000002984 1.3683125000000000426 4.1049375000000001279 0 0 0
21 1 0.0000000000000000000 2.7366250000000000853 2.7366250000000000853 0 0 0
22 1 1.3683125000000000426 4.1049375000000001279 4.1049375000000001279 0 0 0
23 1 5.4732500000000001705 2.7366250000000000853 2.7366250000000000853 0 0 0
24 1 6.8415625000000002132 4.1049375000000001279 4.1049375000000001279 0 0 0
25 1 2.7366250000000000853 5.4732500000000001705 2.7366250000000000853 0 0 0
26 1 4.1049375000000001279 6.8415625000000002132 4.1049375000000001279 0 0 0
27 1 8.2098750000000002558 5.4732500000000001705 2.7366250000000000853 0 0 0
28 1 9.5781875000000002984 6.8415625000000002132 4.1049375000000001279 0 0 0
29 1 0.0000000000000000000 8.2098750000000002558 2.7366250000000000853 0 0 0
30 1 1.3683125000000000426 9.5781875000000002984 4.1049375000000001279 0 0 0
31 1 5.4732500000000001705 8.2098750000000002558 2.7366250000000000853 0 0 0
32 1 6.8415625000000002132 9.5781875000000002984 4.1049375000000001279 0 0 0
33 1 0.0000000000000000000 0.0000000000000000000 5.4732500000000001705 0 0 0
34 1 1.3683125000000000426 1.3683125000000000426 6.8415625000000002132 0 0 0
35 1 5.4732500000000001705 0.0000000000000000000 5.4732500000000001705 0 0 0
36 1 6.8415625000000002132 1.3683125000000000426 6.8415625000000002132 0 0 0
37 1 2.7366250000000000853 2.7366250000000000853 5.4732500000000001705 0 0 0
38 1 4.1049375000000001279 4.1049375000000001279 6.8415625000000002132 0 0 0
39 1 8.2098750000000002558 2.7366250000000000853 5.4732500000000001705 0 0 0
40 1 9.5781875000000002984 4.1049375000000001279 6.8415625000000002132 0 0 0
41 1 0.0000000000000000000 5.4732500000000001705 5.4732500000000001705 0 0 0
42 1 1.3683125000000000426 6.8415625000000002132 6.8415625000000002132 0 0 0
43 1 5.4732500000000001705 5.4732500000000001705 5.4732500000000001705 0 0 0
44 1 6.8415625000000002132 6.8415625000000002132 6.8415625000000002132 0 0 0
45 1 2.7366250000000000853 8.2098750000000002558 5.4732500000000001705 0 0 0
46 1 4.1049375000000001279 9.5781875000000002984 6.8415625000000002132 0 0 0
47 1 8.2098750000000002558 8.2098750000000002558 5.4732500000000001705 0 0 0
48 1 9.5781875000000002984 9.5781875000000002984 6.8415625000000002132 0 0 0
49 1 2.7366250000000000853 0.0000000000000000000 8.2098750000000002558 0 0 0
50 1 4.1049375000000001279 1.3683125000000000426 9.5781875000000002984 0 0 0
51 1 8.2098750000000002558 0.0000000000000000000 8.2098750000000002558 0 0 0
52 1 9.5781875000000002984 1.3683125000000000426 9.5781875000000002984 0 0 0
53 1 0.0000000000000000000 2.7366250000000000853 8.2098750000000002558 0 0 0
54 1 1.3683125000000000426 4.1049375000000001279 9.5781875000000002984 0 0 0
55 1 5.4732500000000001705 2.7366250000000000853 8.2098750000000002558 0 0 0
56 1 6.8415625000000002132 4.1049375000000001279 9.5781875000000002984 0 0 0
57 1 2.7366250000000000853 5.4732500000000001705 8.2098750000000002558 0 0 0
58 1 4.1049375000000001279 6.8415625000000002132 9.5781875000000002984 0 0 0
59 1 8.2098750000000002558 5.4732500000000001705 8.2098750000000002558 0 0 0
60 1 9.5781875000000002984 6.8415625000000002132 9.5781875000000002984 0 0 0
61 1 0.0000000000000000000 8.2098750000000002558 8.2098750000000002558 0 0 0
62 1 1.3683125000000000426 9.5781875000000002984 9.5781875000000002984 0 0 0
63 1 5.4732500000000001705 8.2098750000000002558 8.2098750000000002558 0 0 0
64 1 6.8415625000000002132 9.5781875000000002984 9.5781875000000002984 0 0 0
