 vasp.5.3.3 18Dez12 (build Aug 19 2015 04:09:51) complex                        
  
 executed on             LinuxIFC date 2016.01.29  02:29:20
 running on    8 total cores
 distrk:  each k-point on    8 cores,    1 groups
 distr:  one band on NCORES_PER_BAND=   1 cores,    8 groups


--------------------------------------------------------------------------------------------------------


 INCAR:
 POTCAR:    PAW_PBE Ge_d 03Jul2007                

 ----------------------------------------------------------------------------- 
|                                                                             |
|           W    W    AA    RRRRR   N    N  II  N    N   GGGG   !!!           |
|           W    W   A  A   R    R  NN   N  II  NN   N  G    G  !!!           |
|           W    W  A    A  R    R  N N  N  II  N N  N  G       !!!           |
|           W WW W  AAAAAA  RRRRR   N  N N  II  N  N N  G  GGG   !            |
|           WW  WW  A    A  R   R   N   NN  II  N   NN  G    G                |
|           W    W  A    A  R    R  N    N  II  N    N   GGGG   !!!           |
|                                                                             |
|      For optimal performance we recommend that you set                      |
|        NPAR = 4 - approx SQRT( number of cores)                             |
|      (number of cores/NPAR must be integer)                                 |
|      This setting will greatly improve the performance of VASP for DFT.     |
|      The default NPAR=number of cores might be grossly inefficient          |
|      on modern multi-core architectures or massively parallel machines.     |
|      Do your own testing.                                                   |
|      Unfortunately you need to use the default for hybrid, GW and RPA       |
|      calculations.                                                          |
|                                                                             |
 ----------------------------------------------------------------------------- 

 POTCAR:    PAW_PBE Ge_d 03Jul2007                
   VRHFIN =Ge: 3d4s4p                                                           
   LEXCH  = PE                                                                  
   EATOM  =  2596.2402 eV,  190.8183 Ry                                         
                                                                                
   TITEL  = PAW_PBE Ge_d 03Jul2007                                              
   LULTRA =        F    use ultrasoft PP ?                                      
   IUNSCR =        1    unscreen: 0-lin 1-nonlin 2-no                           
   RPACOR =    2.000    partial core radius                                     
   POMASS =   72.610; ZVAL   =   14.000    mass and valenz                      
   RCORE  =    2.300    outmost cutoff radius                                   
   RWIGS  =    2.300; RWIGS  =    1.217    wigner-seitz radius (au A)           
   ENMAX  =  310.294; ENMIN  =  232.720 eV                                      
   ICORE  =        3    local potential                                         
   LCOR   =        T    correct aug charges                                     
   LPAW   =        T    paw PP                                                  
   EAUG   =  531.356                                                            
   DEXC   =    0.000                                                            
   RMAX   =    2.342    core radius for proj-oper                               
   RAUG   =    1.300    factor for augmentation sphere                          
   RDEP   =    2.318    radius for radial grids                                 
   RDEPT  =    1.783    core radius for aug-charge                              
                                                                                
   Atomic configuration                                                         
    9 entries                                                                   
     n  l   j            E        occ.                                          
     1  0  0.50    -10959.8463   2.0000                                         
     2  0  0.50     -1371.6056   2.0000                                         
     2  1  1.50     -1198.4791   6.0000                                         
     3  0  0.50      -168.4733   2.0000                                         
     3  1  1.50      -115.6019   6.0000                                         
     3  2  2.50       -29.3106  10.0000                                         
     4  0  0.50       -11.7309   2.0000                                         
     4  1  0.50        -3.8952   2.0000                                         
     4  3  2.50        -4.0817   0.0000                                         
   Description                                                                  
     l       E           TYP  RCUT    TYP  RCUT                                 
     2    -29.3105938     23  2.200                                             
     2    -13.6058260     23  2.200                                             
     0    -11.7309493     23  2.300                                             
     0     -7.4578696     23  2.300                                             
     1     -3.8952261     23  2.300                                             
     1      6.1178114     23  2.300                                             
     3     -1.3605826     23  2.300                                             
  local pseudopotential read in
  partial core-charges read in
  partial kinetic energy density read in
  atomic valenz-charges read in
  non local Contribution for L=           2  read in
    real space projection operators read in
  non local Contribution for L=           2  read in
    real space projection operators read in
  non local Contribution for L=           0  read in
    real space projection operators read in
  non local Contribution for L=           0  read in
    real space projection operators read in
  non local Contribution for L=           1  read in
    real space projection operators read in
  non local Contribution for L=           1  read in
    real space projection operators read in
    PAW grid and wavefunctions read in
 
   number of l-projection  operators is LMAX  =           6
   number of lm-projection operators is LMMAX =          18
 
  PAW_PBE Ge_d 03Jul2007                :
 energy of atom  1       EATOM=-2596.2402
 kinetic energy error for atom=    0.0197 (will be added to EATOM!!)
 
 
 POSCAR: diamond Ge:                             
  positions in cartesian coordinates
  No initial velocities read in
 exchange correlation table for  LEXCH =        8
   RHO(1)=    0.500       N(1)  =     2000
   RHO(2)=  100.500       N(2)  =     4000
 


--------------------------------------------------------------------------------------------------------


 ion  position               nearest neighbor table
   1  0.024  0.994  0.986-   5 2.47   6 2.59   8 2.67   7 2.69
   2  0.017  0.459  0.485-   5 2.17   6 2.24   7 2.46   8 2.70
   3  0.457  0.988  0.466-   5 2.27   6 2.60   7 2.65   8 2.67
   4  0.452  0.461  0.004-   5 2.32   8 2.49   6 2.51   7 2.58
   5  0.234  0.243  0.263-   2 2.17   3 2.27   4 2.32   1 2.47
   6  0.223  0.694  0.717-   2 2.24   4 2.51   1 2.59   3 2.60
   7  0.732  0.249  0.726-   2 2.46   4 2.58   3 2.65   1 2.69
   8  0.733  0.714  0.213-   4 2.49   3 2.67   1 2.67   2 2.70
 
  LATTYP: Found a simple cubic cell.
 ALAT       =     5.7605890000
  
  Lattice vectors:
  
 A1 = (   5.7605890000,   0.0000000000,   0.0000000000)
 A2 = (   0.0000000000,   5.7605890000,   0.0000000000)
 A3 = (   0.0000000000,   0.0000000000,   5.7605890000)


Analysis of symmetry for initial positions (statically):
=====================================================================
 Subroutine PRICEL returns:
 Original cell was already a primitive cell.
 

 Routine SETGRP: Setting up the symmetry group for a 
 simple cubic supercell.


 Subroutine GETGRP returns: Found  1 space group operations
 (whereof  1 operations were pure point group operations)
 out of a pool of 48 trial point group operations.


The static configuration has the point symmetry C_1 .


Analysis of symmetry for dynamics (positions and initial velocities):
=====================================================================
 Subroutine PRICEL returns:
 Original cell was already a primitive cell.
 

 Routine SETGRP: Setting up the symmetry group for a 
 simple cubic supercell.


 Subroutine GETGRP returns: Found  1 space group operations
 (whereof  1 operations were pure point group operations)
 out of a pool of 48 trial point group operations.


The dynamic configuration has the point symmetry C_1 .


 irot  :   1
 --------------------------------------------------------------------
 isymop:   1   0   0
           0   1   0
           0   0   1

 gtrans:     0.0000000     0.0000000     0.0000000

 ptrans:     0.0000000     0.0000000     0.0000000
 rotmap:
 (   1->   1)  (   2->   2)  (   3->   3)  (   4->   4)  (   5->   5) 
 (   6->   6)  (   7->   7)  (   8->   8) 
 
 
 KPOINTS: K-Points                                

Automatic generation of k-mesh.
Space group operators:
 irot       det(A)        alpha          n_x          n_y          n_z        tau_x        tau_y        tau_z
    1     1.000000     0.000000     1.000000     0.000000     0.000000     0.000000     0.000000     0.000000
 
 Subroutine IBZKPT returns following result:
 ===========================================
 
 Found    666 irreducible k-points:
 
 Following reciprocal coordinates:
            Coordinates               Weight
  0.000000  0.000000  0.000000      1.000000
  0.090909  0.000000  0.000000      2.000000
  0.181818  0.000000  0.000000      2.000000
  0.272727  0.000000  0.000000      2.000000
  0.363636  0.000000  0.000000      2.000000
  0.454545  0.000000  0.000000      2.000000
  0.000000  0.090909  0.000000      2.000000
  0.090909  0.090909  0.000000      2.000000
  0.181818  0.090909  0.000000      2.000000
  0.272727  0.090909  0.000000      2.000000
  0.363636  0.090909  0.000000      2.000000
  0.454545  0.090909  0.000000      2.000000
 -0.454545  0.090909  0.000000      2.000000
 -0.363636  0.090909  0.000000      2.000000
 -0.272727  0.090909  0.000000      2.000000
 -0.181818  0.090909  0.000000      2.000000
 -0.090909  0.090909  0.000000      2.000000
  0.000000  0.181818  0.000000      2.000000
  0.090909  0.181818  0.000000      2.000000
  0.181818  0.181818  0.000000      2.000000
  0.272727  0.181818  0.000000      2.000000
  0.363636  0.181818  0.000000      2.000000
  0.454545  0.181818  0.000000      2.000000
 -0.454545  0.181818  0.000000      2.000000
 -0.363636  0.181818  0.000000      2.000000
 -0.272727  0.181818  0.000000      2.000000
 -0.181818  0.181818  0.000000      2.000000
 -0.090909  0.181818  0.000000      2.000000
  0.000000  0.272727  0.000000      2.000000
  0.090909  0.272727  0.000000      2.000000
  0.181818  0.272727  0.000000      2.000000
  0.272727  0.272727  0.000000      2.000000
  0.363636  0.272727  0.000000      2.000000
  0.454545  0.272727  0.000000      2.000000
 -0.454545  0.272727  0.000000      2.000000
 -0.363636  0.272727  0.000000      2.000000
 -0.272727  0.272727  0.000000      2.000000
 -0.181818  0.272727  0.000000      2.000000
 -0.090909  0.272727  0.000000      2.000000
  0.000000  0.363636  0.000000      2.000000
  0.090909  0.363636  0.000000      2.000000
  0.181818  0.363636  0.000000      2.000000
  0.272727  0.363636  0.000000      2.000000
  0.363636  0.363636  0.000000      2.000000
  0.454545  0.363636  0.000000      2.000000
 -0.454545  0.363636  0.000000      2.000000
 -0.363636  0.363636  0.000000      2.000000
 -0.272727  0.363636  0.000000      2.000000
 -0.181818  0.363636  0.000000      2.000000
 -0.090909  0.363636  0.000000      2.000000
  0.000000  0.454545  0.000000      2.000000
  0.090909  0.454545  0.000000      2.000000
  0.181818  0.454545  0.000000      2.000000
  0.272727  0.454545  0.000000      2.000000
  0.363636  0.454545  0.000000      2.000000
  0.454545  0.454545  0.000000      2.000000
 -0.454545  0.454545  0.000000      2.000000
 -0.363636  0.454545  0.000000      2.000000
 -0.272727  0.454545  0.000000      2.000000
 -0.181818  0.454545  0.000000      2.000000
 -0.090909  0.454545  0.000000      2.000000
  0.000000  0.000000  0.090909      2.000000
  0.090909  0.000000  0.090909      2.000000
  0.181818  0.000000  0.090909      2.000000
  0.272727  0.000000  0.090909      2.000000
  0.363636  0.000000  0.090909      2.000000
  0.454545  0.000000  0.090909      2.000000
 -0.454545  0.000000  0.090909      2.000000
 -0.363636  0.000000  0.090909      2.000000
 -0.272727  0.000000  0.090909      2.000000
 -0.181818  0.000000  0.090909      2.000000
 -0.090909  0.000000  0.090909      2.000000
  0.000000  0.090909  0.090909      2.000000
  0.090909  0.090909  0.090909      2.000000
  0.181818  0.090909  0.090909      2.000000
  0.272727  0.090909  0.090909      2.000000
  0.363636  0.090909  0.090909      2.000000
  0.454545  0.090909  0.090909      2.000000
 -0.454545  0.090909  0.090909      2.000000
 -0.363636  0.090909  0.090909      2.000000
 -0.272727  0.090909  0.090909      2.000000
 -0.181818  0.090909  0.090909      2.000000
 -0.090909  0.090909  0.090909      2.000000
  0.000000  0.181818  0.090909      2.000000
  0.090909  0.181818  0.090909      2.000000
  0.181818  0.181818  0.090909      2.000000
  0.272727  0.181818  0.090909      2.000000
  0.363636  0.181818  0.090909      2.000000
  0.454545  0.181818  0.090909      2.000000
 -0.454545  0.181818  0.090909      2.000000
 -0.363636  0.181818  0.090909      2.000000
 -0.272727  0.181818  0.090909      2.000000
 -0.181818  0.181818  0.090909      2.000000
 -0.090909  0.181818  0.090909      2.000000
  0.000000  0.272727  0.090909      2.000000
  0.090909  0.272727  0.090909      2.000000
  0.181818  0.272727  0.090909      2.000000
  0.272727  0.272727  0.090909      2.000000
  0.363636  0.272727  0.090909      2.000000
  0.454545  0.272727  0.090909      2.000000
 -0.454545  0.272727  0.090909      2.000000
 -0.363636  0.272727  0.090909      2.000000
 -0.272727  0.272727  0.090909      2.000000
 -0.181818  0.272727  0.090909      2.000000
 -0.090909  0.272727  0.090909      2.000000
  0.000000  0.363636  0.090909      2.000000
  0.090909  0.363636  0.090909      2.000000
  0.181818  0.363636  0.090909      2.000000
  0.272727  0.363636  0.090909      2.000000
  0.363636  0.363636  0.090909      2.000000
  0.454545  0.363636  0.090909      2.000000
 -0.454545  0.363636  0.090909      2.000000
 -0.363636  0.363636  0.090909      2.000000
 -0.272727  0.363636  0.090909      2.000000
 -0.181818  0.363636  0.090909      2.000000
 -0.090909  0.363636  0.090909      2.000000
  0.000000  0.454545  0.090909      2.000000
  0.090909  0.454545  0.090909      2.000000
  0.181818  0.454545  0.090909      2.000000
  0.272727  0.454545  0.090909      2.000000
  0.363636  0.454545  0.090909      2.000000
  0.454545  0.454545  0.090909      2.000000
 -0.454545  0.454545  0.090909      2.000000
 -0.363636  0.454545  0.090909      2.000000
 -0.272727  0.454545  0.090909      2.000000
 -0.181818  0.454545  0.090909      2.000000
 -0.090909  0.454545  0.090909      2.000000
  0.000000 -0.454545  0.090909      2.000000
  0.090909 -0.454545  0.090909      2.000000
  0.181818 -0.454545  0.090909      2.000000
  0.272727 -0.454545  0.090909      2.000000
  0.363636 -0.454545  0.090909      2.000000
  0.454545 -0.454545  0.090909      2.000000
 -0.454545 -0.454545  0.090909      2.000000
 -0.363636 -0.454545  0.090909      2.000000
 -0.272727 -0.454545  0.090909      2.000000
 -0.181818 -0.454545  0.090909      2.000000
 -0.090909 -0.454545  0.090909      2.000000
  0.000000 -0.363636  0.090909      2.000000
  0.090909 -0.363636  0.090909      2.000000
  0.181818 -0.363636  0.090909      2.000000
  0.272727 -0.363636  0.090909      2.000000
  0.363636 -0.363636  0.090909      2.000000
  0.454545 -0.363636  0.090909      2.000000
 -0.454545 -0.363636  0.090909      2.000000
 -0.363636 -0.363636  0.090909      2.000000
 -0.272727 -0.363636  0.090909      2.000000
 -0.181818 -0.363636  0.090909      2.000000
 -0.090909 -0.363636  0.090909      2.000000
  0.000000 -0.272727  0.090909      2.000000
  0.090909 -0.272727  0.090909      2.000000
  0.181818 -0.272727  0.090909      2.000000
  0.272727 -0.272727  0.090909      2.000000
  0.363636 -0.272727  0.090909      2.000000
  0.454545 -0.272727  0.090909      2.000000
 -0.454545 -0.272727  0.090909      2.000000
 -0.363636 -0.272727  0.090909      2.000000
 -0.272727 -0.272727  0.090909      2.000000
 -0.181818 -0.272727  0.090909      2.000000
 -0.090909 -0.272727  0.090909      2.000000
  0.000000 -0.181818  0.090909      2.000000
  0.090909 -0.181818  0.090909      2.000000
  0.181818 -0.181818  0.090909      2.000000
  0.272727 -0.181818  0.090909      2.000000
  0.363636 -0.181818  0.090909      2.000000
  0.454545 -0.181818  0.090909      2.000000
 -0.454545 -0.181818  0.090909      2.000000
 -0.363636 -0.181818  0.090909      2.000000
 -0.272727 -0.181818  0.090909      2.000000
 -0.181818 -0.181818  0.090909      2.000000
 -0.090909 -0.181818  0.090909      2.000000
  0.000000 -0.090909  0.090909      2.000000
  0.090909 -0.090909  0.090909      2.000000
  0.181818 -0.090909  0.090909      2.000000
  0.272727 -0.090909  0.090909      2.000000
  0.363636 -0.090909  0.090909      2.000000
  0.454545 -0.090909  0.090909      2.000000
 -0.454545 -0.090909  0.090909      2.000000
 -0.363636 -0.090909  0.090909      2.000000
 -0.272727 -0.090909  0.090909      2.000000
 -0.181818 -0.090909  0.090909      2.000000
 -0.090909 -0.090909  0.090909      2.000000
  0.000000  0.000000  0.181818      2.000000
  0.090909  0.000000  0.181818      2.000000
  0.181818  0.000000  0.181818      2.000000
  0.272727  0.000000  0.181818      2.000000
  0.363636  0.000000  0.181818      2.000000
  0.454545  0.000000  0.181818      2.000000
 -0.454545  0.000000  0.181818      2.000000
 -0.363636  0.000000  0.181818      2.000000
 -0.272727  0.000000  0.181818      2.000000
 -0.181818  0.000000  0.181818      2.000000
 -0.090909  0.000000  0.181818      2.000000
  0.000000  0.090909  0.181818      2.000000
  0.090909  0.090909  0.181818      2.000000
  0.181818  0.090909  0.181818      2.000000
  0.272727  0.090909  0.181818      2.000000
  0.363636  0.090909  0.181818      2.000000
  0.454545  0.090909  0.181818      2.000000
 -0.454545  0.090909  0.181818      2.000000
 -0.363636  0.090909  0.181818      2.000000
 -0.272727  0.090909  0.181818      2.000000
 -0.181818  0.090909  0.181818      2.000000
 -0.090909  0.090909  0.181818      2.000000
  0.000000  0.181818  0.181818      2.000000
  0.090909  0.181818  0.181818      2.000000
  0.181818  0.181818  0.181818      2.000000
  0.272727  0.181818  0.181818      2.000000
  0.363636  0.181818  0.181818      2.000000
  0.454545  0.181818  0.181818      2.000000
 -0.454545  0.181818  0.181818      2.000000
 -0.363636  0.181818  0.181818      2.000000
 -0.272727  0.181818  0.181818      2.000000
 -0.181818  0.181818  0.181818      2.000000
 -0.090909  0.181818  0.181818      2.000000
  0.000000  0.272727  0.181818      2.000000
  0.090909  0.272727  0.181818      2.000000
  0.181818  0.272727  0.181818      2.000000
  0.272727  0.272727  0.181818      2.000000
  0.363636  0.272727  0.181818      2.000000
  0.454545  0.272727  0.181818      2.000000
 -0.454545  0.272727  0.181818      2.000000
 -0.363636  0.272727  0.181818      2.000000
 -0.272727  0.272727  0.181818      2.000000
 -0.181818  0.272727  0.181818      2.000000
 -0.090909  0.272727  0.181818      2.000000
  0.000000  0.363636  0.181818      2.000000
  0.090909  0.363636  0.181818      2.000000
  0.181818  0.363636  0.181818      2.000000
  0.272727  0.363636  0.181818      2.000000
  0.363636  0.363636  0.181818      2.000000
  0.454545  0.363636  0.181818      2.000000
 -0.454545  0.363636  0.181818      2.000000
 -0.363636  0.363636  0.181818      2.000000
 -0.272727  0.363636  0.181818      2.000000
 -0.181818  0.363636  0.181818      2.000000
 -0.090909  0.363636  0.181818      2.000000
  0.000000  0.454545  0.181818      2.000000
  0.090909  0.454545  0.181818      2.000000
  0.181818  0.454545  0.181818      2.000000
  0.272727  0.454545  0.181818      2.000000
  0.363636  0.454545  0.181818      2.000000
  0.454545  0.454545  0.181818      2.000000
 -0.454545  0.454545  0.181818      2.000000
 -0.363636  0.454545  0.181818      2.000000
 -0.272727  0.454545  0.181818      2.000000
 -0.181818  0.454545  0.181818      2.000000
 -0.090909  0.454545  0.181818      2.000000
  0.000000 -0.454545  0.181818      2.000000
  0.090909 -0.454545  0.181818      2.000000
  0.181818 -0.454545  0.181818      2.000000
  0.272727 -0.454545  0.181818      2.000000
  0.363636 -0.454545  0.181818      2.000000
  0.454545 -0.454545  0.181818      2.000000
 -0.454545 -0.454545  0.181818      2.000000
 -0.363636 -0.454545  0.181818      2.000000
 -0.272727 -0.454545  0.181818      2.000000
 -0.181818 -0.454545  0.181818      2.000000
 -0.090909 -0.454545  0.181818      2.000000
  0.000000 -0.363636  0.181818      2.000000
  0.090909 -0.363636  0.181818      2.000000
  0.181818 -0.363636  0.181818      2.000000
  0.272727 -0.363636  0.181818      2.000000
  0.363636 -0.363636  0.181818      2.000000
  0.454545 -0.363636  0.181818      2.000000
 -0.454545 -0.363636  0.181818      2.000000
 -0.363636 -0.363636  0.181818      2.000000
 -0.272727 -0.363636  0.181818      2.000000
 -0.181818 -0.363636  0.181818      2.000000
 -0.090909 -0.363636  0.181818      2.000000
  0.000000 -0.272727  0.181818      2.000000
  0.090909 -0.272727  0.181818      2.000000
  0.181818 -0.272727  0.181818      2.000000
  0.272727 -0.272727  0.181818      2.000000
  0.363636 -0.272727  0.181818      2.000000
  0.454545 -0.272727  0.181818      2.000000
 -0.454545 -0.272727  0.181818      2.000000
 -0.363636 -0.272727  0.181818      2.000000
 -0.272727 -0.272727  0.181818      2.000000
 -0.181818 -0.272727  0.181818      2.000000
 -0.090909 -0.272727  0.181818      2.000000
  0.000000 -0.181818  0.181818      2.000000
  0.090909 -0.181818  0.181818      2.000000
  0.181818 -0.181818  0.181818      2.000000
  0.272727 -0.181818  0.181818      2.000000
  0.363636 -0.181818  0.181818      2.000000
  0.454545 -0.181818  0.181818      2.000000
 -0.454545 -0.181818  0.181818      2.000000
 -0.363636 -0.181818  0.181818      2.000000
 -0.272727 -0.181818  0.181818      2.000000
 -0.181818 -0.181818  0.181818      2.000000
 -0.090909 -0.181818  0.181818      2.000000
  0.000000 -0.090909  0.181818      2.000000
  0.090909 -0.090909  0.181818      2.000000
  0.181818 -0.090909  0.181818      2.000000
  0.272727 -0.090909  0.181818      2.000000
  0.363636 -0.090909  0.181818      2.000000
  0.454545 -0.090909  0.181818      2.000000
 -0.454545 -0.090909  0.181818      2.000000
 -0.363636 -0.090909  0.181818      2.000000
 -0.272727 -0.090909  0.181818      2.000000
 -0.181818 -0.090909  0.181818      2.000000
 -0.090909 -0.090909  0.181818      2.000000
  0.000000  0.000000  0.272727      2.000000
  0.090909  0.000000  0.272727      2.000000
  0.181818  0.000000  0.272727      2.000000
  0.272727  0.000000  0.272727      2.000000
  0.363636  0.000000  0.272727      2.000000
  0.454545  0.000000  0.272727      2.000000
 -0.454545  0.000000  0.272727      2.000000
 -0.363636  0.000000  0.272727      2.000000
 -0.272727  0.000000  0.272727      2.000000
 -0.181818  0.000000  0.272727      2.000000
 -0.090909  0.000000  0.272727      2.000000
  0.000000  0.090909  0.272727      2.000000
  0.090909  0.090909  0.272727      2.000000
  0.181818  0.090909  0.272727      2.000000
  0.272727  0.090909  0.272727      2.000000
  0.363636  0.090909  0.272727      2.000000
  0.454545  0.090909  0.272727      2.000000
 -0.454545  0.090909  0.272727      2.000000
 -0.363636  0.090909  0.272727      2.000000
 -0.272727  0.090909  0.272727      2.000000
 -0.181818  0.090909  0.272727      2.000000
 -0.090909  0.090909  0.272727      2.000000
  0.000000  0.181818  0.272727      2.000000
  0.090909  0.181818  0.272727      2.000000
  0.181818  0.181818  0.272727      2.000000
  0.272727  0.181818  0.272727      2.000000
  0.363636  0.181818  0.272727      2.000000
  0.454545  0.181818  0.272727      2.000000
 -0.454545  0.181818  0.272727      2.000000
 -0.363636  0.181818  0.272727      2.000000
 -0.272727  0.181818  0.272727      2.000000
 -0.181818  0.181818  0.272727      2.000000
 -0.090909  0.181818  0.272727      2.000000
  0.000000  0.272727  0.272727      2.000000
  0.090909  0.272727  0.272727      2.000000
  0.181818  0.272727  0.272727      2.000000
  0.272727  0.272727  0.272727      2.000000
  0.363636  0.272727  0.272727      2.000000
  0.454545  0.272727  0.272727      2.000000
 -0.454545  0.272727  0.272727      2.000000
 -0.363636  0.272727  0.272727      2.000000
 -0.272727  0.272727  0.272727      2.000000
 -0.181818  0.272727  0.272727      2.000000
 -0.090909  0.272727  0.272727      2.000000
  0.000000  0.363636  0.272727      2.000000
  0.090909  0.363636  0.272727      2.000000
  0.181818  0.363636  0.272727      2.000000
  0.272727  0.363636  0.272727      2.000000
  0.363636  0.363636  0.272727      2.000000
  0.454545  0.363636  0.272727      2.000000
 -0.454545  0.363636  0.272727      2.000000
 -0.363636  0.363636  0.272727      2.000000
 -0.272727  0.363636  0.272727      2.000000
 -0.181818  0.363636  0.272727      2.000000
 -0.090909  0.363636  0.272727      2.000000
  0.000000  0.454545  0.272727      2.000000
  0.090909  0.454545  0.272727      2.000000
  0.181818  0.454545  0.272727      2.000000
  0.272727  0.454545  0.272727      2.000000
  0.363636  0.454545  0.272727      2.000000
  0.454545  0.454545  0.272727      2.000000
 -0.454545  0.454545  0.272727      2.000000
 -0.363636  0.454545  0.272727      2.000000
 -0.272727  0.454545  0.272727      2.000000
 -0.181818  0.454545  0.272727      2.000000
 -0.090909  0.454545  0.272727      2.000000
  0.000000 -0.454545  0.272727      2.000000
  0.090909 -0.454545  0.272727      2.000000
  0.181818 -0.454545  0.272727      2.000000
  0.272727 -0.454545  0.272727      2.000000
  0.363636 -0.454545  0.272727      2.000000
  0.454545 -0.454545  0.272727      2.000000
 -0.454545 -0.454545  0.272727      2.000000
 -0.363636 -0.454545  0.272727      2.000000
 -0.272727 -0.454545  0.272727      2.000000
 -0.181818 -0.454545  0.272727      2.000000
 -0.090909 -0.454545  0.272727      2.000000
  0.000000 -0.363636  0.272727      2.000000
  0.090909 -0.363636  0.272727      2.000000
  0.181818 -0.363636  0.272727      2.000000
  0.272727 -0.363636  0.272727      2.000000
  0.363636 -0.363636  0.272727      2.000000
  0.454545 -0.363636  0.272727      2.000000
 -0.454545 -0.363636  0.272727      2.000000
 -0.363636 -0.363636  0.272727      2.000000
 -0.272727 -0.363636  0.272727      2.000000
 -0.181818 -0.363636  0.272727      2.000000
 -0.090909 -0.363636  0.272727      2.000000
  0.000000 -0.272727  0.272727      2.000000
  0.090909 -0.272727  0.272727      2.000000
  0.181818 -0.272727  0.272727      2.000000
  0.272727 -0.272727  0.272727      2.000000
  0.363636 -0.272727  0.272727      2.000000
  0.454545 -0.272727  0.272727      2.000000
 -0.454545 -0.272727  0.272727      2.000000
 -0.363636 -0.272727  0.272727      2.000000
 -0.272727 -0.272727  0.272727      2.000000
 -0.181818 -0.272727  0.272727      2.000000
 -0.090909 -0.272727  0.272727      2.000000
  0.000000 -0.181818  0.272727      2.000000
  0.090909 -0.181818  0.272727      2.000000
  0.181818 -0.181818  0.272727      2.000000
  0.272727 -0.181818  0.272727      2.000000
  0.363636 -0.181818  0.272727      2.000000
  0.454545 -0.181818  0.272727      2.000000
 -0.454545 -0.181818  0.272727      2.000000
 -0.363636 -0.181818  0.272727      2.000000
 -0.272727 -0.181818  0.272727      2.000000
 -0.181818 -0.181818  0.272727      2.000000
 -0.090909 -0.181818  0.272727      2.000000
  0.000000 -0.090909  0.272727      2.000000
  0.090909 -0.090909  0.272727      2.000000
  0.181818 -0.090909  0.272727      2.000000
  0.272727 -0.090909  0.272727      2.000000
  0.363636 -0.090909  0.272727      2.000000
  0.454545 -0.090909  0.272727      2.000000
 -0.454545 -0.090909  0.272727      2.000000
 -0.363636 -0.090909  0.272727      2.000000
 -0.272727 -0.090909  0.272727      2.000000
 -0.181818 -0.090909  0.272727      2.000000
 -0.090909 -0.090909  0.272727      2.000000
  0.000000  0.000000  0.363636      2.000000
  0.090909  0.000000  0.363636      2.000000
  0.181818  0.000000  0.363636      2.000000
  0.272727  0.000000  0.363636      2.000000
  0.363636  0.000000  0.363636      2.000000
  0.454545  0.000000  0.363636      2.000000
 -0.454545  0.000000  0.363636      2.000000
 -0.363636  0.000000  0.363636      2.000000
 -0.272727  0.000000  0.363636      2.000000
 -0.181818  0.000000  0.363636      2.000000
 -0.090909  0.000000  0.363636      2.000000
  0.000000  0.090909  0.363636      2.000000
  0.090909  0.090909  0.363636      2.000000
  0.181818  0.090909  0.363636      2.000000
  0.272727  0.090909  0.363636      2.000000
  0.363636  0.090909  0.363636      2.000000
  0.454545  0.090909  0.363636      2.000000
 -0.454545  0.090909  0.363636      2.000000
 -0.363636  0.090909  0.363636      2.000000
 -0.272727  0.090909  0.363636      2.000000
 -0.181818  0.090909  0.363636      2.000000
 -0.090909  0.090909  0.363636      2.000000
  0.000000  0.181818  0.363636      2.000000
  0.090909  0.181818  0.363636      2.000000
  0.181818  0.181818  0.363636      2.000000
  0.272727  0.181818  0.363636      2.000000
  0.363636  0.181818  0.363636      2.000000
  0.454545  0.181818  0.363636      2.000000
 -0.454545  0.181818  0.363636      2.000000
 -0.363636  0.181818  0.363636      2.000000
 -0.272727  0.181818  0.363636      2.000000
 -0.181818  0.181818  0.363636      2.000000
 -0.090909  0.181818  0.363636      2.000000
  0.000000  0.272727  0.363636      2.000000
  0.090909  0.272727  0.363636      2.000000
  0.181818  0.272727  0.363636      2.000000
  0.272727  0.272727  0.363636      2.000000
  0.363636  0.272727  0.363636      2.000000
  0.454545  0.272727  0.363636      2.000000
 -0.454545  0.272727  0.363636      2.000000
 -0.363636  0.272727  0.363636      2.000000
 -0.272727  0.272727  0.363636      2.000000
 -0.181818  0.272727  0.363636      2.000000
 -0.090909  0.272727  0.363636      2.000000
  0.000000  0.363636  0.363636      2.000000
  0.090909  0.363636  0.363636      2.000000
  0.181818  0.363636  0.363636      2.000000
  0.272727  0.363636  0.363636      2.000000
  0.363636  0.363636  0.363636      2.000000
  0.454545  0.363636  0.363636      2.000000
 -0.454545  0.363636  0.363636      2.000000
 -0.363636  0.363636  0.363636      2.000000
 -0.272727  0.363636  0.363636      2.000000
 -0.181818  0.363636  0.363636      2.000000
 -0.090909  0.363636  0.363636      2.000000
  0.000000  0.454545  0.363636      2.000000
  0.090909  0.454545  0.363636      2.000000
  0.181818  0.454545  0.363636      2.000000
  0.272727  0.454545  0.363636      2.000000
  0.363636  0.454545  0.363636      2.000000
  0.454545  0.454545  0.363636      2.000000
 -0.454545  0.454545  0.363636      2.000000
 -0.363636  0.454545  0.363636      2.000000
 -0.272727  0.454545  0.363636      2.000000
 -0.181818  0.454545  0.363636      2.000000
 -0.090909  0.454545  0.363636      2.000000
  0.000000 -0.454545  0.363636      2.000000
  0.090909 -0.454545  0.363636      2.000000
  0.181818 -0.454545  0.363636      2.000000
  0.272727 -0.454545  0.363636      2.000000
  0.363636 -0.454545  0.363636      2.000000
  0.454545 -0.454545  0.363636      2.000000
 -0.454545 -0.454545  0.363636      2.000000
 -0.363636 -0.454545  0.363636      2.000000
 -0.272727 -0.454545  0.363636      2.000000
 -0.181818 -0.454545  0.363636      2.000000
 -0.090909 -0.454545  0.363636      2.000000
  0.000000 -0.363636  0.363636      2.000000
  0.090909 -0.363636  0.363636      2.000000
  0.181818 -0.363636  0.363636      2.000000
  0.272727 -0.363636  0.363636      2.000000
  0.363636 -0.363636  0.363636      2.000000
  0.454545 -0.363636  0.363636      2.000000
 -0.454545 -0.363636  0.363636      2.000000
 -0.363636 -0.363636  0.363636      2.000000
 -0.272727 -0.363636  0.363636      2.000000
 -0.181818 -0.363636  0.363636      2.000000
 -0.090909 -0.363636  0.363636      2.000000
  0.000000 -0.272727  0.363636      2.000000
  0.090909 -0.272727  0.363636      2.000000
  0.181818 -0.272727  0.363636      2.000000
  0.272727 -0.272727  0.363636      2.000000
  0.363636 -0.272727  0.363636      2.000000
  0.454545 -0.272727  0.363636      2.000000
 -0.454545 -0.272727  0.363636      2.000000
 -0.363636 -0.272727  0.363636      2.000000
 -0.272727 -0.272727  0.363636      2.000000
 -0.181818 -0.272727  0.363636      2.000000
 -0.090909 -0.272727  0.363636      2.000000
  0.000000 -0.181818  0.363636      2.000000
  0.090909 -0.181818  0.363636      2.000000
  0.181818 -0.181818  0.363636      2.000000
  0.272727 -0.181818  0.363636      2.000000
  0.363636 -0.181818  0.363636      2.000000
  0.454545 -0.181818  0.363636      2.000000
 -0.454545 -0.181818  0.363636      2.000000
 -0.363636 -0.181818  0.363636      2.000000
 -0.272727 -0.181818  0.363636      2.000000
 -0.181818 -0.181818  0.363636      2.000000
 -0.090909 -0.181818  0.363636      2.000000
  0.000000 -0.090909  0.363636      2.000000
  0.090909 -0.090909  0.363636      2.000000
  0.181818 -0.090909  0.363636      2.000000
  0.272727 -0.090909  0.363636      2.000000
  0.363636 -0.090909  0.363636      2.000000
  0.454545 -0.090909  0.363636      2.000000
 -0.454545 -0.090909  0.363636      2.000000
 -0.363636 -0.090909  0.363636      2.000000
 -0.272727 -0.090909  0.363636      2.000000
 -0.181818 -0.090909  0.363636      2.000000
 -0.090909 -0.090909  0.363636      2.000000
  0.000000  0.000000  0.454545      2.000000
  0.090909  0.000000  0.454545      2.000000
  0.181818  0.000000  0.454545      2.000000
  0.272727  0.000000  0.454545      2.000000
  0.363636  0.000000  0.454545      2.000000
  0.454545  0.000000  0.454545      2.000000
 -0.454545  0.000000  0.454545      2.000000
 -0.363636  0.000000  0.454545      2.000000
 -0.272727  0.000000  0.454545      2.000000
 -0.181818  0.000000  0.454545      2.000000
 -0.090909  0.000000  0.454545      2.000000
  0.000000  0.090909  0.454545      2.000000
  0.090909  0.090909  0.454545      2.000000
  0.181818  0.090909  0.454545      2.000000
  0.272727  0.090909  0.454545      2.000000
  0.363636  0.090909  0.454545      2.000000
  0.454545  0.090909  0.454545      2.000000
 -0.454545  0.090909  0.454545      2.000000
 -0.363636  0.090909  0.454545      2.000000
 -0.272727  0.090909  0.454545      2.000000
 -0.181818  0.090909  0.454545      2.000000
 -0.090909  0.090909  0.454545      2.000000
  0.000000  0.181818  0.454545      2.000000
  0.090909  0.181818  0.454545      2.000000
  0.181818  0.181818  0.454545      2.000000
  0.272727  0.181818  0.454545      2.000000
  0.363636  0.181818  0.454545      2.000000
  0.454545  0.181818  0.454545      2.000000
 -0.454545  0.181818  0.454545      2.000000
 -0.363636  0.181818  0.454545      2.000000
 -0.272727  0.181818  0.454545      2.000000
 -0.181818  0.181818  0.454545      2.000000
 -0.090909  0.181818  0.454545      2.000000
  0.000000  0.272727  0.454545      2.000000
  0.090909  0.272727  0.454545      2.000000
  0.181818  0.272727  0.454545      2.000000
  0.272727  0.272727  0.454545      2.000000
  0.363636  0.272727  0.454545      2.000000
  0.454545  0.272727  0.454545      2.000000
 -0.454545  0.272727  0.454545      2.000000
 -0.363636  0.272727  0.454545      2.000000
 -0.272727  0.272727  0.454545      2.000000
 -0.181818  0.272727  0.454545      2.000000
 -0.090909  0.272727  0.454545      2.000000
  0.000000  0.363636  0.454545      2.000000
  0.090909  0.363636  0.454545      2.000000
  0.181818  0.363636  0.454545      2.000000
  0.272727  0.363636  0.454545      2.000000
  0.363636  0.363636  0.454545      2.000000
  0.454545  0.363636  0.454545      2.000000
 -0.454545  0.363636  0.454545      2.000000
 -0.363636  0.363636  0.454545      2.000000
 -0.272727  0.363636  0.454545      2.000000
 -0.181818  0.363636  0.454545      2.000000
 -0.090909  0.363636  0.454545      2.000000
  0.000000  0.454545  0.454545      2.000000
  0.090909  0.454545  0.454545      2.000000
  0.181818  0.454545  0.454545      2.000000
  0.272727  0.454545  0.454545      2.000000
  0.363636  0.454545  0.454545      2.000000
  0.454545  0.454545  0.454545      2.000000
 -0.454545  0.454545  0.454545      2.000000
 -0.363636  0.454545  0.454545      2.000000
 -0.272727  0.454545  0.454545      2.000000
 -0.181818  0.454545  0.454545      2.000000
 -0.090909  0.454545  0.454545      2.000000
  0.000000 -0.454545  0.454545      2.000000
  0.090909 -0.454545  0.454545      2.000000
  0.181818 -0.454545  0.454545      2.000000
  0.272727 -0.454545  0.454545      2.000000
  0.363636 -0.454545  0.454545      2.000000
  0.454545 -0.454545  0.454545      2.000000
 -0.454545 -0.454545  0.454545      2.000000
 -0.363636 -0.454545  0.454545      2.000000
 -0.272727 -0.454545  0.454545      2.000000
 -0.181818 -0.454545  0.454545      2.000000
 -0.090909 -0.454545  0.454545      2.000000
  0.000000 -0.363636  0.454545      2.000000
  0.090909 -0.363636  0.454545      2.000000
  0.181818 -0.363636  0.454545      2.000000
  0.272727 -0.363636  0.454545      2.000000
  0.363636 -0.363636  0.454545      2.000000
  0.454545 -0.363636  0.454545      2.000000
 -0.454545 -0.363636  0.454545      2.000000
 -0.363636 -0.363636  0.454545      2.000000
 -0.272727 -0.363636  0.454545      2.000000
 -0.181818 -0.363636  0.454545      2.000000
 -0.090909 -0.363636  0.454545      2.000000
  0.000000 -0.272727  0.454545      2.000000
  0.090909 -0.272727  0.454545      2.000000
  0.181818 -0.272727  0.454545      2.000000
  0.272727 -0.272727  0.454545      2.000000
  0.363636 -0.272727  0.454545      2.000000
  0.454545 -0.272727  0.454545      2.000000
 -0.454545 -0.272727  0.454545      2.000000
 -0.363636 -0.272727  0.454545      2.000000
 -0.272727 -0.272727  0.454545      2.000000
 -0.181818 -0.272727  0.454545      2.000000
 -0.090909 -0.272727  0.454545      2.000000
  0.000000 -0.181818  0.454545      2.000000
  0.090909 -0.181818  0.454545      2.000000
  0.181818 -0.181818  0.454545      2.000000
  0.272727 -0.181818  0.454545      2.000000
  0.363636 -0.181818  0.454545      2.000000
  0.454545 -0.181818  0.454545      2.000000
 -0.454545 -0.181818  0.454545      2.000000
 -0.363636 -0.181818  0.454545      2.000000
 -0.272727 -0.181818  0.454545      2.000000
 -0.181818 -0.181818  0.454545      2.000000
 -0.090909 -0.181818  0.454545      2.000000
  0.000000 -0.090909  0.454545      2.000000
  0.090909 -0.090909  0.454545      2.000000
  0.181818 -0.090909  0.454545      2.000000
  0.272727 -0.090909  0.454545      2.000000
  0.363636 -0.090909  0.454545      2.000000
  0.454545 -0.090909  0.454545      2.000000
 -0.454545 -0.090909  0.454545      2.000000
 -0.363636 -0.090909  0.454545      2.000000
 -0.272727 -0.090909  0.454545      2.000000
 -0.181818 -0.090909  0.454545      2.000000
 -0.090909 -0.090909  0.454545      2.000000
 
 Following cartesian coordinates:
            Coordinates               Weight
  0.000000  0.000000  0.000000      1.000000
  0.015781  0.000000  0.000000      2.000000
  0.031562  0.000000  0.000000      2.000000
  0.047344  0.000000  0.000000      2.000000
  0.063125  0.000000  0.000000      2.000000
  0.078906  0.000000  0.000000      2.000000
  0.000000  0.015781  0.000000      2.000000
  0.015781  0.015781  0.000000      2.000000
  0.031562  0.015781  0.000000      2.000000
  0.047344  0.015781  0.000000      2.000000
  0.063125  0.015781  0.000000      2.000000
  0.078906  0.015781  0.000000      2.000000
 -0.078906  0.015781  0.000000      2.000000
 -0.063125  0.015781  0.000000      2.000000
 -0.047344  0.015781  0.000000      2.000000
 -0.031562  0.015781  0.000000      2.000000
 -0.015781  0.015781  0.000000      2.000000
  0.000000  0.031562  0.000000      2.000000
  0.015781  0.031562  0.000000      2.000000
  0.031562  0.031562  0.000000      2.000000
  0.047344  0.031562  0.000000      2.000000
  0.063125  0.031562  0.000000      2.000000
  0.078906  0.031562  0.000000      2.000000
 -0.078906  0.031562  0.000000      2.000000
 -0.063125  0.031562  0.000000      2.000000
 -0.047344  0.031562  0.000000      2.000000
 -0.031562  0.031562  0.000000      2.000000
 -0.015781  0.031562  0.000000      2.000000
  0.000000  0.047344  0.000000      2.000000
  0.015781  0.047344  0.000000      2.000000
  0.031562  0.047344  0.000000      2.000000
  0.047344  0.047344  0.000000      2.000000
  0.063125  0.047344  0.000000      2.000000
  0.078906  0.047344  0.000000      2.000000
 -0.078906  0.047344  0.000000      2.000000
 -0.063125  0.047344  0.000000      2.000000
 -0.047344  0.047344  0.000000      2.000000
 -0.031562  0.047344  0.000000      2.000000
 -0.015781  0.047344  0.000000      2.000000
  0.000000  0.063125  0.000000      2.000000
  0.015781  0.063125  0.000000      2.000000
  0.031562  0.063125  0.000000      2.000000
  0.047344  0.063125  0.000000      2.000000
  0.063125  0.063125  0.000000      2.000000
  0.078906  0.063125  0.000000      2.000000
 -0.078906  0.063125  0.000000      2.000000
 -0.063125  0.063125  0.000000      2.000000
 -0.047344  0.063125  0.000000      2.000000
 -0.031562  0.063125  0.000000      2.000000
 -0.015781  0.063125  0.000000      2.000000
  0.000000  0.078906  0.000000      2.000000
  0.015781  0.078906  0.000000      2.000000
  0.031562  0.078906  0.000000      2.000000
  0.047344  0.078906  0.000000      2.000000
  0.063125  0.078906  0.000000      2.000000
  0.078906  0.078906  0.000000      2.000000
 -0.078906  0.078906  0.000000      2.000000
 -0.063125  0.078906  0.000000      2.000000
 -0.047344  0.078906  0.000000      2.000000
 -0.031562  0.078906  0.000000      2.000000
 -0.015781  0.078906  0.000000      2.000000
  0.000000  0.000000  0.015781      2.000000
  0.015781  0.000000  0.015781      2.000000
  0.031562  0.000000  0.015781      2.000000
  0.047344  0.000000  0.015781      2.000000
  0.063125  0.000000  0.015781      2.000000
  0.078906  0.000000  0.015781      2.000000
 -0.078906  0.000000  0.015781      2.000000
 -0.063125  0.000000  0.015781      2.000000
 -0.047344  0.000000  0.015781      2.000000
 -0.031562  0.000000  0.015781      2.000000
 -0.015781  0.000000  0.015781      2.000000
  0.000000  0.015781  0.015781      2.000000
  0.015781  0.015781  0.015781      2.000000
  0.031562  0.015781  0.015781      2.000000
  0.047344  0.015781  0.015781      2.000000
  0.063125  0.015781  0.015781      2.000000
  0.078906  0.015781  0.015781      2.000000
 -0.078906  0.015781  0.015781      2.000000
 -0.063125  0.015781  0.015781      2.000000
 -0.047344  0.015781  0.015781      2.000000
 -0.031562  0.015781  0.015781      2.000000
 -0.015781  0.015781  0.015781      2.000000
  0.000000  0.031562  0.015781      2.000000
  0.015781  0.031562  0.015781      2.000000
  0.031562  0.031562  0.015781      2.000000
  0.047344  0.031562  0.015781      2.000000
  0.063125  0.031562  0.015781      2.000000
  0.078906  0.031562  0.015781      2.000000
 -0.078906  0.031562  0.015781      2.000000
 -0.063125  0.031562  0.015781      2.000000
 -0.047344  0.031562  0.015781      2.000000
 -0.031562  0.031562  0.015781      2.000000
 -0.015781  0.031562  0.015781      2.000000
  0.000000  0.047344  0.015781      2.000000
  0.015781  0.047344  0.015781      2.000000
  0.031562  0.047344  0.015781      2.000000
  0.047344  0.047344  0.015781      2.000000
  0.063125  0.047344  0.015781      2.000000
  0.078906  0.047344  0.015781      2.000000
 -0.078906  0.047344  0.015781      2.000000
 -0.063125  0.047344  0.015781      2.000000
 -0.047344  0.047344  0.015781      2.000000
 -0.031562  0.047344  0.015781      2.000000
 -0.015781  0.047344  0.015781      2.000000
  0.000000  0.063125  0.015781      2.000000
  0.015781  0.063125  0.015781      2.000000
  0.031562  0.063125  0.015781      2.000000
  0.047344  0.063125  0.015781      2.000000
  0.063125  0.063125  0.015781      2.000000
  0.078906  0.063125  0.015781      2.000000
 -0.078906  0.063125  0.015781      2.000000
 -0.063125  0.063125  0.015781      2.000000
 -0.047344  0.063125  0.015781      2.000000
 -0.031562  0.063125  0.015781      2.000000
 -0.015781  0.063125  0.015781      2.000000
  0.000000  0.078906  0.015781      2.000000
  0.015781  0.078906  0.015781      2.000000
  0.031562  0.078906  0.015781      2.000000
  0.047344  0.078906  0.015781      2.000000
  0.063125  0.078906  0.015781      2.000000
  0.078906  0.078906  0.015781      2.000000
 -0.078906  0.078906  0.015781      2.000000
 -0.063125  0.078906  0.015781      2.000000
 -0.047344  0.078906  0.015781      2.000000
 -0.031562  0.078906  0.015781      2.000000
 -0.015781  0.078906  0.015781      2.000000
  0.000000 -0.078906  0.015781      2.000000
  0.015781 -0.078906  0.015781      2.000000
  0.031562 -0.078906  0.015781      2.000000
  0.047344 -0.078906  0.015781      2.000000
  0.063125 -0.078906  0.015781      2.000000
  0.078906 -0.078906  0.015781      2.000000
 -0.078906 -0.078906  0.015781      2.000000
 -0.063125 -0.078906  0.015781      2.000000
 -0.047344 -0.078906  0.015781      2.000000
 -0.031562 -0.078906  0.015781      2.000000
 -0.015781 -0.078906  0.015781      2.000000
  0.000000 -0.063125  0.015781      2.000000
  0.015781 -0.063125  0.015781      2.000000
  0.031562 -0.063125  0.015781      2.000000
  0.047344 -0.063125  0.015781      2.000000
  0.063125 -0.063125  0.015781      2.000000
  0.078906 -0.063125  0.015781      2.000000
 -0.078906 -0.063125  0.015781      2.000000
 -0.063125 -0.063125  0.015781      2.000000
 -0.047344 -0.063125  0.015781      2.000000
 -0.031562 -0.063125  0.015781      2.000000
 -0.015781 -0.063125  0.015781      2.000000
  0.000000 -0.047344  0.015781      2.000000
  0.015781 -0.047344  0.015781      2.000000
  0.031562 -0.047344  0.015781      2.000000
  0.047344 -0.047344  0.015781      2.000000
  0.063125 -0.047344  0.015781      2.000000
  0.078906 -0.047344  0.015781      2.000000
 -0.078906 -0.047344  0.015781      2.000000
 -0.063125 -0.047344  0.015781      2.000000
 -0.047344 -0.047344  0.015781      2.000000
 -0.031562 -0.047344  0.015781      2.000000
 -0.015781 -0.047344  0.015781      2.000000
  0.000000 -0.031562  0.015781      2.000000
  0.015781 -0.031562  0.015781      2.000000
  0.031562 -0.031562  0.015781      2.000000
  0.047344 -0.031562  0.015781      2.000000
  0.063125 -0.031562  0.015781      2.000000
  0.078906 -0.031562  0.015781      2.000000
 -0.078906 -0.031562  0.015781      2.000000
 -0.063125 -0.031562  0.015781      2.000000
 -0.047344 -0.031562  0.015781      2.000000
 -0.031562 -0.031562  0.015781      2.000000
 -0.015781 -0.031562  0.015781      2.000000
  0.000000 -0.015781  0.015781      2.000000
  0.015781 -0.015781  0.015781      2.000000
  0.031562 -0.015781  0.015781      2.000000
  0.047344 -0.015781  0.015781      2.000000
  0.063125 -0.015781  0.015781      2.000000
  0.078906 -0.015781  0.015781      2.000000
 -0.078906 -0.015781  0.015781      2.000000
 -0.063125 -0.015781  0.015781      2.000000
 -0.047344 -0.015781  0.015781      2.000000
 -0.031562 -0.015781  0.015781      2.000000
 -0.015781 -0.015781  0.015781      2.000000
  0.000000  0.000000  0.031562      2.000000
  0.015781  0.000000  0.031562      2.000000
  0.031562  0.000000  0.031562      2.000000
  0.047344  0.000000  0.031562      2.000000
  0.063125  0.000000  0.031562      2.000000
  0.078906  0.000000  0.031562      2.000000
 -0.078906  0.000000  0.031562      2.000000
 -0.063125  0.000000  0.031562      2.000000
 -0.047344  0.000000  0.031562      2.000000
 -0.031562  0.000000  0.031562      2.000000
 -0.015781  0.000000  0.031562      2.000000
  0.000000  0.015781  0.031562      2.000000
  0.015781  0.015781  0.031562      2.000000
  0.031562  0.015781  0.031562      2.000000
  0.047344  0.015781  0.031562      2.000000
  0.063125  0.015781  0.031562      2.000000
  0.078906  0.015781  0.031562      2.000000
 -0.078906  0.015781  0.031562      2.000000
 -0.063125  0.015781  0.031562      2.000000
 -0.047344  0.015781  0.031562      2.000000
 -0.031562  0.015781  0.031562      2.000000
 -0.015781  0.015781  0.031562      2.000000
  0.000000  0.031562  0.031562      2.000000
  0.015781  0.031562  0.031562      2.000000
  0.031562  0.031562  0.031562      2.000000
  0.047344  0.031562  0.031562      2.000000
  0.063125  0.031562  0.031562      2.000000
  0.078906  0.031562  0.031562      2.000000
 -0.078906  0.031562  0.031562      2.000000
 -0.063125  0.031562  0.031562      2.000000
 -0.047344  0.031562  0.031562      2.000000
 -0.031562  0.031562  0.031562      2.000000
 -0.015781  0.031562  0.031562      2.000000
  0.000000  0.047344  0.031562      2.000000
  0.015781  0.047344  0.031562      2.000000
  0.031562  0.047344  0.031562      2.000000
  0.047344  0.047344  0.031562      2.000000
  0.063125  0.047344  0.031562      2.000000
  0.078906  0.047344  0.031562      2.000000
 -0.078906  0.047344  0.031562      2.000000
 -0.063125  0.047344  0.031562      2.000000
 -0.047344  0.047344  0.031562      2.000000
 -0.031562  0.047344  0.031562      2.000000
 -0.015781  0.047344  0.031562      2.000000
  0.000000  0.063125  0.031562      2.000000
  0.015781  0.063125  0.031562      2.000000
  0.031562  0.063125  0.031562      2.000000
  0.047344  0.063125  0.031562      2.000000
  0.063125  0.063125  0.031562      2.000000
  0.078906  0.063125  0.031562      2.000000
 -0.078906  0.063125  0.031562      2.000000
 -0.063125  0.063125  0.031562      2.000000
 -0.047344  0.063125  0.031562      2.000000
 -0.031562  0.063125  0.031562      2.000000
 -0.015781  0.063125  0.031562      2.000000
  0.000000  0.078906  0.031562      2.000000
  0.015781  0.078906  0.031562      2.000000
  0.031562  0.078906  0.031562      2.000000
  0.047344  0.078906  0.031562      2.000000
  0.063125  0.078906  0.031562      2.000000
  0.078906  0.078906  0.031562      2.000000
 -0.078906  0.078906  0.031562      2.000000
 -0.063125  0.078906  0.031562      2.000000
 -0.047344  0.078906  0.031562      2.000000
 -0.031562  0.078906  0.031562      2.000000
 -0.015781  0.078906  0.031562      2.000000
  0.000000 -0.078906  0.031562      2.000000
  0.015781 -0.078906  0.031562      2.000000
  0.031562 -0.078906  0.031562      2.000000
  0.047344 -0.078906  0.031562      2.000000
  0.063125 -0.078906  0.031562      2.000000
  0.078906 -0.078906  0.031562      2.000000
 -0.078906 -0.078906  0.031562      2.000000
 -0.063125 -0.078906  0.031562      2.000000
 -0.047344 -0.078906  0.031562      2.000000
 -0.031562 -0.078906  0.031562      2.000000
 -0.015781 -0.078906  0.031562      2.000000
  0.000000 -0.063125  0.031562      2.000000
  0.015781 -0.063125  0.031562      2.000000
  0.031562 -0.063125  0.031562      2.000000
  0.047344 -0.063125  0.031562      2.000000
  0.063125 -0.063125  0.031562      2.000000
  0.078906 -0.063125  0.031562      2.000000
 -0.078906 -0.063125  0.031562      2.000000
 -0.063125 -0.063125  0.031562      2.000000
 -0.047344 -0.063125  0.031562      2.000000
 -0.031562 -0.063125  0.031562      2.000000
 -0.015781 -0.063125  0.031562      2.000000
  0.000000 -0.047344  0.031562      2.000000
  0.015781 -0.047344  0.031562      2.000000
  0.031562 -0.047344  0.031562      2.000000
  0.047344 -0.047344  0.031562      2.000000
  0.063125 -0.047344  0.031562      2.000000
  0.078906 -0.047344  0.031562      2.000000
 -0.078906 -0.047344  0.031562      2.000000
 -0.063125 -0.047344  0.031562      2.000000
 -0.047344 -0.047344  0.031562      2.000000
 -0.031562 -0.047344  0.031562      2.000000
 -0.015781 -0.047344  0.031562      2.000000
  0.000000 -0.031562  0.031562      2.000000
  0.015781 -0.031562  0.031562      2.000000
  0.031562 -0.031562  0.031562      2.000000
  0.047344 -0.031562  0.031562      2.000000
  0.063125 -0.031562  0.031562      2.000000
  0.078906 -0.031562  0.031562      2.000000
 -0.078906 -0.031562  0.031562      2.000000
 -0.063125 -0.031562  0.031562      2.000000
 -0.047344 -0.031562  0.031562      2.000000
 -0.031562 -0.031562  0.031562      2.000000
 -0.015781 -0.031562  0.031562      2.000000
  0.000000 -0.015781  0.031562      2.000000
  0.015781 -0.015781  0.031562      2.000000
  0.031562 -0.015781  0.031562      2.000000
  0.047344 -0.015781  0.031562      2.000000
  0.063125 -0.015781  0.031562      2.000000
  0.078906 -0.015781  0.031562      2.000000
 -0.078906 -0.015781  0.031562      2.000000
 -0.063125 -0.015781  0.031562      2.000000
 -0.047344 -0.015781  0.031562      2.000000
 -0.031562 -0.015781  0.031562      2.000000
 -0.015781 -0.015781  0.031562      2.000000
  0.000000  0.000000  0.047344      2.000000
  0.015781  0.000000  0.047344      2.000000
  0.031562  0.000000  0.047344      2.000000
  0.047344  0.000000  0.047344      2.000000
  0.063125  0.000000  0.047344      2.000000
  0.078906  0.000000  0.047344      2.000000
 -0.078906  0.000000  0.047344      2.000000
 -0.063125  0.000000  0.047344      2.000000
 -0.047344  0.000000  0.047344      2.000000
 -0.031562  0.000000  0.047344      2.000000
 -0.015781  0.000000  0.047344      2.000000
  0.000000  0.015781  0.047344      2.000000
  0.015781  0.015781  0.047344      2.000000
  0.031562  0.015781  0.047344      2.000000
  0.047344  0.015781  0.047344      2.000000
  0.063125  0.015781  0.047344      2.000000
  0.078906  0.015781  0.047344      2.000000
 -0.078906  0.015781  0.047344      2.000000
 -0.063125  0.015781  0.047344      2.000000
 -0.047344  0.015781  0.047344      2.000000
 -0.031562  0.015781  0.047344      2.000000
 -0.015781  0.015781  0.047344      2.000000
  0.000000  0.031562  0.047344      2.000000
  0.015781  0.031562  0.047344      2.000000
  0.031562  0.031562  0.047344      2.000000
  0.047344  0.031562  0.047344      2.000000
  0.063125  0.031562  0.047344      2.000000
  0.078906  0.031562  0.047344      2.000000
 -0.078906  0.031562  0.047344      2.000000
 -0.063125  0.031562  0.047344      2.000000
 -0.047344  0.031562  0.047344      2.000000
 -0.031562  0.031562  0.047344      2.000000
 -0.015781  0.031562  0.047344      2.000000
  0.000000  0.047344  0.047344      2.000000
  0.015781  0.047344  0.047344      2.000000
  0.031562  0.047344  0.047344      2.000000
  0.047344  0.047344  0.047344      2.000000
  0.063125  0.047344  0.047344      2.000000
  0.078906  0.047344  0.047344      2.000000
 -0.078906  0.047344  0.047344      2.000000
 -0.063125  0.047344  0.047344      2.000000
 -0.047344  0.047344  0.047344      2.000000
 -0.031562  0.047344  0.047344      2.000000
 -0.015781  0.047344  0.047344      2.000000
  0.000000  0.063125  0.047344      2.000000
  0.015781  0.063125  0.047344      2.000000
  0.031562  0.063125  0.047344      2.000000
  0.047344  0.063125  0.047344      2.000000
  0.063125  0.063125  0.047344      2.000000
  0.078906  0.063125  0.047344      2.000000
 -0.078906  0.063125  0.047344      2.000000
 -0.063125  0.063125  0.047344      2.000000
 -0.047344  0.063125  0.047344      2.000000
 -0.031562  0.063125  0.047344      2.000000
 -0.015781  0.063125  0.047344      2.000000
  0.000000  0.078906  0.047344      2.000000
  0.015781  0.078906  0.047344      2.000000
  0.031562  0.078906  0.047344      2.000000
  0.047344  0.078906  0.047344      2.000000
  0.063125  0.078906  0.047344      2.000000
  0.078906  0.078906  0.047344      2.000000
 -0.078906  0.078906  0.047344      2.000000
 -0.063125  0.078906  0.047344      2.000000
 -0.047344  0.078906  0.047344      2.000000
 -0.031562  0.078906  0.047344      2.000000
 -0.015781  0.078906  0.047344      2.000000
  0.000000 -0.078906  0.047344      2.000000
  0.015781 -0.078906  0.047344      2.000000
  0.031562 -0.078906  0.047344      2.000000
  0.047344 -0.078906  0.047344      2.000000
  0.063125 -0.078906  0.047344      2.000000
  0.078906 -0.078906  0.047344      2.000000
 -0.078906 -0.078906  0.047344      2.000000
 -0.063125 -0.078906  0.047344      2.000000
 -0.047344 -0.078906  0.047344      2.000000
 -0.031562 -0.078906  0.047344      2.000000
 -0.015781 -0.078906  0.047344      2.000000
  0.000000 -0.063125  0.047344      2.000000
  0.015781 -0.063125  0.047344      2.000000
  0.031562 -0.063125  0.047344      2.000000
  0.047344 -0.063125  0.047344      2.000000
  0.063125 -0.063125  0.047344      2.000000
  0.078906 -0.063125  0.047344      2.000000
 -0.078906 -0.063125  0.047344      2.000000
 -0.063125 -0.063125  0.047344      2.000000
 -0.047344 -0.063125  0.047344      2.000000
 -0.031562 -0.063125  0.047344      2.000000
 -0.015781 -0.063125  0.047344      2.000000
  0.000000 -0.047344  0.047344      2.000000
  0.015781 -0.047344  0.047344      2.000000
  0.031562 -0.047344  0.047344      2.000000
  0.047344 -0.047344  0.047344      2.000000
  0.063125 -0.047344  0.047344      2.000000
  0.078906 -0.047344  0.047344      2.000000
 -0.078906 -0.047344  0.047344      2.000000
 -0.063125 -0.047344  0.047344      2.000000
 -0.047344 -0.047344  0.047344      2.000000
 -0.031562 -0.047344  0.047344      2.000000
 -0.015781 -0.047344  0.047344      2.000000
  0.000000 -0.031562  0.047344      2.000000
  0.015781 -0.031562  0.047344      2.000000
  0.031562 -0.031562  0.047344      2.000000
  0.047344 -0.031562  0.047344      2.000000
  0.063125 -0.031562  0.047344      2.000000
  0.078906 -0.031562  0.047344      2.000000
 -0.078906 -0.031562  0.047344      2.000000
 -0.063125 -0.031562  0.047344      2.000000
 -0.047344 -0.031562  0.047344      2.000000
 -0.031562 -0.031562  0.047344      2.000000
 -0.015781 -0.031562  0.047344      2.000000
  0.000000 -0.015781  0.047344      2.000000
  0.015781 -0.015781  0.047344      2.000000
  0.031562 -0.015781  0.047344      2.000000
  0.047344 -0.015781  0.047344      2.000000
  0.063125 -0.015781  0.047344      2.000000
  0.078906 -0.015781  0.047344      2.000000
 -0.078906 -0.015781  0.047344      2.000000
 -0.063125 -0.015781  0.047344      2.000000
 -0.047344 -0.015781  0.047344      2.000000
 -0.031562 -0.015781  0.047344      2.000000
 -0.015781 -0.015781  0.047344      2.000000
  0.000000  0.000000  0.063125      2.000000
  0.015781  0.000000  0.063125      2.000000
  0.031562  0.000000  0.063125      2.000000
  0.047344  0.000000  0.063125      2.000000
  0.063125  0.000000  0.063125      2.000000
  0.078906  0.000000  0.063125      2.000000
 -0.078906  0.000000  0.063125      2.000000
 -0.063125  0.000000  0.063125      2.000000
 -0.047344  0.000000  0.063125      2.000000
 -0.031562  0.000000  0.063125      2.000000
 -0.015781  0.000000  0.063125      2.000000
  0.000000  0.015781  0.063125      2.000000
  0.015781  0.015781  0.063125      2.000000
  0.031562  0.015781  0.063125      2.000000
  0.047344  0.015781  0.063125      2.000000
  0.063125  0.015781  0.063125      2.000000
  0.078906  0.015781  0.063125      2.000000
 -0.078906  0.015781  0.063125      2.000000
 -0.063125  0.015781  0.063125      2.000000
 -0.047344  0.015781  0.063125      2.000000
 -0.031562  0.015781  0.063125      2.000000
 -0.015781  0.015781  0.063125      2.000000
  0.000000  0.031562  0.063125      2.000000
  0.015781  0.031562  0.063125      2.000000
  0.031562  0.031562  0.063125      2.000000
  0.047344  0.031562  0.063125      2.000000
  0.063125  0.031562  0.063125      2.000000
  0.078906  0.031562  0.063125      2.000000
 -0.078906  0.031562  0.063125      2.000000
 -0.063125  0.031562  0.063125      2.000000
 -0.047344  0.031562  0.063125      2.000000
 -0.031562  0.031562  0.063125      2.000000
 -0.015781  0.031562  0.063125      2.000000
  0.000000  0.047344  0.063125      2.000000
  0.015781  0.047344  0.063125      2.000000
  0.031562  0.047344  0.063125      2.000000
  0.047344  0.047344  0.063125      2.000000
  0.063125  0.047344  0.063125      2.000000
  0.078906  0.047344  0.063125      2.000000
 -0.078906  0.047344  0.063125      2.000000
 -0.063125  0.047344  0.063125      2.000000
 -0.047344  0.047344  0.063125      2.000000
 -0.031562  0.047344  0.063125      2.000000
 -0.015781  0.047344  0.063125      2.000000
  0.000000  0.063125  0.063125      2.000000
  0.015781  0.063125  0.063125      2.000000
  0.031562  0.063125  0.063125      2.000000
  0.047344  0.063125  0.063125      2.000000
  0.063125  0.063125  0.063125      2.000000
  0.078906  0.063125  0.063125      2.000000
 -0.078906  0.063125  0.063125      2.000000
 -0.063125  0.063125  0.063125      2.000000
 -0.047344  0.063125  0.063125      2.000000
 -0.031562  0.063125  0.063125      2.000000
 -0.015781  0.063125  0.063125      2.000000
  0.000000  0.078906  0.063125      2.000000
  0.015781  0.078906  0.063125      2.000000
  0.031562  0.078906  0.063125      2.000000
  0.047344  0.078906  0.063125      2.000000
  0.063125  0.078906  0.063125      2.000000
  0.078906  0.078906  0.063125      2.000000
 -0.078906  0.078906  0.063125      2.000000
 -0.063125  0.078906  0.063125      2.000000
 -0.047344  0.078906  0.063125      2.000000
 -0.031562  0.078906  0.063125      2.000000
 -0.015781  0.078906  0.063125      2.000000
  0.000000 -0.078906  0.063125      2.000000
  0.015781 -0.078906  0.063125      2.000000
  0.031562 -0.078906  0.063125      2.000000
  0.047344 -0.078906  0.063125      2.000000
  0.063125 -0.078906  0.063125      2.000000
  0.078906 -0.078906  0.063125      2.000000
 -0.078906 -0.078906  0.063125      2.000000
 -0.063125 -0.078906  0.063125      2.000000
 -0.047344 -0.078906  0.063125      2.000000
 -0.031562 -0.078906  0.063125      2.000000
 -0.015781 -0.078906  0.063125      2.000000
  0.000000 -0.063125  0.063125      2.000000
  0.015781 -0.063125  0.063125      2.000000
  0.031562 -0.063125  0.063125      2.000000
  0.047344 -0.063125  0.063125      2.000000
  0.063125 -0.063125  0.063125      2.000000
  0.078906 -0.063125  0.063125      2.000000
 -0.078906 -0.063125  0.063125      2.000000
 -0.063125 -0.063125  0.063125      2.000000
 -0.047344 -0.063125  0.063125      2.000000
 -0.031562 -0.063125  0.063125      2.000000
 -0.015781 -0.063125  0.063125      2.000000
  0.000000 -0.047344  0.063125      2.000000
  0.015781 -0.047344  0.063125      2.000000
  0.031562 -0.047344  0.063125      2.000000
  0.047344 -0.047344  0.063125      2.000000
  0.063125 -0.047344  0.063125      2.000000
  0.078906 -0.047344  0.063125      2.000000
 -0.078906 -0.047344  0.063125      2.000000
 -0.063125 -0.047344  0.063125      2.000000
 -0.047344 -0.047344  0.063125      2.000000
 -0.031562 -0.047344  0.063125      2.000000
 -0.015781 -0.047344  0.063125      2.000000
  0.000000 -0.031562  0.063125      2.000000
  0.015781 -0.031562  0.063125      2.000000
  0.031562 -0.031562  0.063125      2.000000
  0.047344 -0.031562  0.063125      2.000000
  0.063125 -0.031562  0.063125      2.000000
  0.078906 -0.031562  0.063125      2.000000
 -0.078906 -0.031562  0.063125      2.000000
 -0.063125 -0.031562  0.063125      2.000000
 -0.047344 -0.031562  0.063125      2.000000
 -0.031562 -0.031562  0.063125      2.000000
 -0.015781 -0.031562  0.063125      2.000000
  0.000000 -0.015781  0.063125      2.000000
  0.015781 -0.015781  0.063125      2.000000
  0.031562 -0.015781  0.063125      2.000000
  0.047344 -0.015781  0.063125      2.000000
  0.063125 -0.015781  0.063125      2.000000
  0.078906 -0.015781  0.063125      2.000000
 -0.078906 -0.015781  0.063125      2.000000
 -0.063125 -0.015781  0.063125      2.000000
 -0.047344 -0.015781  0.063125      2.000000
 -0.031562 -0.015781  0.063125      2.000000
 -0.015781 -0.015781  0.063125      2.000000
  0.000000  0.000000  0.078906      2.000000
  0.015781  0.000000  0.078906      2.000000
  0.031562  0.000000  0.078906      2.000000
  0.047344  0.000000  0.078906      2.000000
  0.063125  0.000000  0.078906      2.000000
  0.078906  0.000000  0.078906      2.000000
 -0.078906  0.000000  0.078906      2.000000
 -0.063125  0.000000  0.078906      2.000000
 -0.047344  0.000000  0.078906      2.000000
 -0.031562  0.000000  0.078906      2.000000
 -0.015781  0.000000  0.078906      2.000000
  0.000000  0.015781  0.078906      2.000000
  0.015781  0.015781  0.078906      2.000000
  0.031562  0.015781  0.078906      2.000000
  0.047344  0.015781  0.078906      2.000000
  0.063125  0.015781  0.078906      2.000000
  0.078906  0.015781  0.078906      2.000000
 -0.078906  0.015781  0.078906      2.000000
 -0.063125  0.015781  0.078906      2.000000
 -0.047344  0.015781  0.078906      2.000000
 -0.031562  0.015781  0.078906      2.000000
 -0.015781  0.015781  0.078906      2.000000
  0.000000  0.031562  0.078906      2.000000
  0.015781  0.031562  0.078906      2.000000
  0.031562  0.031562  0.078906      2.000000
  0.047344  0.031562  0.078906      2.000000
  0.063125  0.031562  0.078906      2.000000
  0.078906  0.031562  0.078906      2.000000
 -0.078906  0.031562  0.078906      2.000000
 -0.063125  0.031562  0.078906      2.000000
 -0.047344  0.031562  0.078906      2.000000
 -0.031562  0.031562  0.078906      2.000000
 -0.015781  0.031562  0.078906      2.000000
  0.000000  0.047344  0.078906      2.000000
  0.015781  0.047344  0.078906      2.000000
  0.031562  0.047344  0.078906      2.000000
  0.047344  0.047344  0.078906      2.000000
  0.063125  0.047344  0.078906      2.000000
  0.078906  0.047344  0.078906      2.000000
 -0.078906  0.047344  0.078906      2.000000
 -0.063125  0.047344  0.078906      2.000000
 -0.047344  0.047344  0.078906      2.000000
 -0.031562  0.047344  0.078906      2.000000
 -0.015781  0.047344  0.078906      2.000000
  0.000000  0.063125  0.078906      2.000000
  0.015781  0.063125  0.078906      2.000000
  0.031562  0.063125  0.078906      2.000000
  0.047344  0.063125  0.078906      2.000000
  0.063125  0.063125  0.078906      2.000000
  0.078906  0.063125  0.078906      2.000000
 -0.078906  0.063125  0.078906      2.000000
 -0.063125  0.063125  0.078906      2.000000
 -0.047344  0.063125  0.078906      2.000000
 -0.031562  0.063125  0.078906      2.000000
 -0.015781  0.063125  0.078906      2.000000
  0.000000  0.078906  0.078906      2.000000
  0.015781  0.078906  0.078906      2.000000
  0.031562  0.078906  0.078906      2.000000
  0.047344  0.078906  0.078906      2.000000
  0.063125  0.078906  0.078906      2.000000
  0.078906  0.078906  0.078906      2.000000
 -0.078906  0.078906  0.078906      2.000000
 -0.063125  0.078906  0.078906      2.000000
 -0.047344  0.078906  0.078906      2.000000
 -0.031562  0.078906  0.078906      2.000000
 -0.015781  0.078906  0.078906      2.000000
  0.000000 -0.078906  0.078906      2.000000
  0.015781 -0.078906  0.078906      2.000000
  0.031562 -0.078906  0.078906      2.000000
  0.047344 -0.078906  0.078906      2.000000
  0.063125 -0.078906  0.078906      2.000000
  0.078906 -0.078906  0.078906      2.000000
 -0.078906 -0.078906  0.078906      2.000000
 -0.063125 -0.078906  0.078906      2.000000
 -0.047344 -0.078906  0.078906      2.000000
 -0.031562 -0.078906  0.078906      2.000000
 -0.015781 -0.078906  0.078906      2.000000
  0.000000 -0.063125  0.078906      2.000000
  0.015781 -0.063125  0.078906      2.000000
  0.031562 -0.063125  0.078906      2.000000
  0.047344 -0.063125  0.078906      2.000000
  0.063125 -0.063125  0.078906      2.000000
  0.078906 -0.063125  0.078906      2.000000
 -0.078906 -0.063125  0.078906      2.000000
 -0.063125 -0.063125  0.078906      2.000000
 -0.047344 -0.063125  0.078906      2.000000
 -0.031562 -0.063125  0.078906      2.000000
 -0.015781 -0.063125  0.078906      2.000000
  0.000000 -0.047344  0.078906      2.000000
  0.015781 -0.047344  0.078906      2.000000
  0.031562 -0.047344  0.078906      2.000000
  0.047344 -0.047344  0.078906      2.000000
  0.063125 -0.047344  0.078906      2.000000
  0.078906 -0.047344  0.078906      2.000000
 -0.078906 -0.047344  0.078906      2.000000
 -0.063125 -0.047344  0.078906      2.000000
 -0.047344 -0.047344  0.078906      2.000000
 -0.031562 -0.047344  0.078906      2.000000
 -0.015781 -0.047344  0.078906      2.000000
  0.000000 -0.031562  0.078906      2.000000
  0.015781 -0.031562  0.078906      2.000000
  0.031562 -0.031562  0.078906      2.000000
  0.047344 -0.031562  0.078906      2.000000
  0.063125 -0.031562  0.078906      2.000000
  0.078906 -0.031562  0.078906      2.000000
 -0.078906 -0.031562  0.078906      2.000000
 -0.063125 -0.031562  0.078906      2.000000
 -0.047344 -0.031562  0.078906      2.000000
 -0.031562 -0.031562  0.078906      2.000000
 -0.015781 -0.031562  0.078906      2.000000
  0.000000 -0.015781  0.078906      2.000000
  0.015781 -0.015781  0.078906      2.000000
  0.031562 -0.015781  0.078906      2.000000
  0.047344 -0.015781  0.078906      2.000000
  0.063125 -0.015781  0.078906      2.000000
  0.078906 -0.015781  0.078906      2.000000
 -0.078906 -0.015781  0.078906      2.000000
 -0.063125 -0.015781  0.078906      2.000000
 -0.047344 -0.015781  0.078906      2.000000
 -0.031562 -0.015781  0.078906      2.000000
 -0.015781 -0.015781  0.078906      2.000000
 
 TETIRR: Found   3990 inequivalent tetrahedra from     7986


--------------------------------------------------------------------------------------------------------




 Dimension of arrays:
   k-points           NKPTS =    666   k-points in BZ     NKDIM =    666   number of bands    NBANDS=     72
   number of dos      NEDOS =    301   number of ions     NIONS =      8
   non local maximal  LDIM  =      6   non local SUM 2l+1 LMDIM =     18
   total plane-waves  NPLWV =  64000
   max r-space proj   IRMAX =      1   max aug-charges    IRDMAX=   4949
   dimension x,y,z NGX =    40 NGY =   40 NGZ =   40
   dimension x,y,z NGXF=    60 NGYF=   60 NGZF=   60
   support grid    NGXF=    60 NGYF=   60 NGZF=   60
   ions per type =               8
 NGX,Y,Z   is equivalent  to a cutoff of  11.54, 11.54, 11.54 a.u.
 NGXF,Y,Z  is equivalent  to a cutoff of  17.32, 17.32, 17.32 a.u.


 I would recommend the setting:
   dimension x,y,z NGX =    37 NGY =   37 NGZ =   37
 SYSTEM =  diamond Ge                              
 POSCAR =  diamond Ge:                             

 Startparameter for this run:
   NWRITE =      2    write-flag & timer
   PREC   = high      normal or accurate (medium, high low for compatibility)
   ISTART =      0    job   : 0-new  1-cont  2-samecut
   ICHARG =      2    charge: 1-file 2-atom 10-const
   ISPIN  =      1    spin polarized calculation?
   LNONCOLLINEAR =      F non collinear calculations
   LSORBIT =      F    spin-orbit coupling
   INIWAV =      1    electr: 0-lowe 1-rand  2-diag
   LASPH  =      F    aspherical Exc in radial PAW
   METAGGA=      F    non-selfconsistent MetaGGA calc.

 Electronic Relaxation 1
   ENCUT  =  387.9 eV  28.51 Ry    5.34 a.u.   9.25  9.25  9.25*2*pi/ulx,y,z
   ENINI  =  387.9     initial cutoff
   ENAUG  =  531.4 eV  augmentation charge cutoff
   NELM   =     40;   NELMIN=  2; NELMDL= -5     # of ELM steps 
   EDIFF  = 0.1E-02   stopping-criterion for ELM
   LREAL  =      F    real-space projection
   NLSPLINE    = F    spline interpolate recip. space projectors
   LCOMPAT=      F    compatible to vasp.4.4
   GGA_COMPAT  = T    GGA compatible to vasp.4.4-vasp.4.6
   LMAXPAW     = -100 max onsite density
   LMAXMIX     =    2 max onsite mixed and CHGCAR
   VOSKOWN=      0    Vosko Wilk Nusair interpolation
   ROPT   =    0.00000
 Ionic relaxation
   EDIFFG = 0.1E-01   stopping-criterion for IOM
   NSW    =      0    number of steps for IOM
   NBLOCK =      1;   KBLOCK =      1    inner block; outer block 
   IBRION =     -1    ionic relax: 0-MD 1-quasi-New 2-CG
   NFREE  =      0    steps in history (QN), initial steepest desc. (CG)
   ISIF   =      2    stress and relaxation
   IWAVPR =     10    prediction:  0-non 1-charg 2-wave 3-comb
   ISYM   =      2    0-nonsym 1-usesym 2-fastsym
   LCORR  =      T    Harris-Foulkes like correction to forces

   POTIM  = 0.5000    time-step for ionic-motion
   TEIN   =    0.0    initial temperature
   TEBEG  =    0.0;   TEEND  =   0.0 temperature during run
   SMASS  =  -3.00    Nose mass-parameter (am)
   estimated Nose-frequenzy (Omega)   =  0.10E-29 period in steps =****** mass=  -0.758E-27a.u.
   SCALEE = 1.0000    scale energy and forces
   NPACO  =    256;   APACO  = 16.0  distance and # of slots for P.C.
   PSTRESS=    0.0 pullay stress

  Mass of Ions in am
   POMASS =  72.61
  Ionic Valenz
   ZVAL   =  14.00
  Atomic Wigner-Seitz radii
   RWIGS  =  -1.00
  virtual crystal weights 
   VCA    =   1.00
   NELECT =     112.0000    total number of electrons
   NUPDOWN=      -1.0000    fix difference up-down

 DOS related values:
   EMIN   =  10.00;   EMAX   =-10.00  energy-range for DOS
   EFERMI =   0.00
   ISMEAR =    -5;   SIGMA  =   0.20  broadening in eV -4-tet -1-fermi 0-gaus

 Electronic relaxation 2 (details)
   IALGO  =     38    algorithm
   LDIAG  =      T    sub-space diagonalisation (order eigenvalues)
   LSUBROT=      T    optimize rotation matrix (better conditioning)
   TURBO    =      0    0=normal 1=particle mesh
   IRESTART =      0    0=no restart 2=restart with 2 vectors
   NREBOOT  =      0    no. of reboots
   NMIN     =      0    reboot dimension
   EREF     =   0.00    reference energy to select bands
   IMIX   =      4    mixing-type and parameters
     AMIX     =   0.40;   BMIX     =  1.00
     AMIX_MAG =   1.60;   BMIX_MAG =  1.00
     AMIN     =   0.10
     WC   =   100.;   INIMIX=   1;  MIXPRE=   1;  MAXMIX= -45

 Intra band minimization:
   WEIMIN = 0.0000     energy-eigenvalue tresh-hold
   EBREAK =  0.35E-05  absolut break condition
   DEPER  =   0.30     relativ break condition  

   TIME   =   0.40     timestep for ELM

  volume/ion in A,a.u.               =      23.90       161.25
  Fermi-wavevector in a.u.,A,eV,Ry     =   1.369874  2.588686 25.532077  1.876555
  Thomas-Fermi vector in A             =   2.495710
 
 Write flags
   LWAVE  =      F    write WAVECAR
   LCHARG =      T    write CHGCAR
   LVTOT  =      F    write LOCPOT, total local potential
   LVHAR  =      F    write LOCPOT, Hartree potential only
   LELF   =      F    write electronic localiz. function (ELF)
   LORBIT =      0    0 simple, 1 ext, 2 COOP (PROOUT)


 Dipole corrections
   LMONO  =      F    monopole corrections only (constant potential shift)
   LDIPOL =      F    correct potential (dipole corrections)
   IDIPOL =      0    1-x, 2-y, 3-z, 4-all directions 
   EPSILON=  1.0000000 bulk dielectric constant

 Exchange correlation treatment:
   GGA     =    --    GGA type
   LEXCH   =     8    internal setting for exchange type
   VOSKOWN=      0    Vosko Wilk Nusair interpolation
   LHFCALC =     F    Hartree Fock is set to
   LHFONE  =     F    Hartree Fock one center treatment
   AEXX    =    0.0000 exact exchange contribution

 Linear response parameters
   LEPSILON=     F    determine dielectric tensor
   LRPA    =     F    only Hartree local field effects (RPA)
   LNABLA  =     F    use nabla operator in PAW spheres
   LVEL    =     F    velocity operator in full k-point grid
   LINTERFAST=   F  fast interpolation
   KINTER  =     0    interpolate to denser k-point grid
   CSHIFT  =0.1000    complex shift for real part using Kramers Kronig
   OMEGAMAX=  -1.0    maximum frequency
   DEG_THRESHOLD= 0.2000000E-02 threshold for treating states as degnerate
   RTIME   =    0.100 relaxation time in fs

 Orbital magnetization related:
   ORBITALMAG=     F  switch on orbital magnetization
   LCHIMAG   =     F  perturbation theory with respect to B field
   DQ        =  0.001000  dq finite difference perturbation B field



--------------------------------------------------------------------------------------------------------


 Static calculation
 charge density and potential will be updated during run
 non-spin polarized calculation
 Variant of blocked Davidson
 Davidson routine will perform the subspace rotation
 perform sub-space diagonalisation
    after iterative eigenvector-optimisation
 modified Broyden-mixing scheme, WC =      100.0
 initial mixing is a Kerker type mixing with AMIX =  0.4000 and BMIX =      1.0000
 Hartree-type preconditioning will be used
 using additional bands           16
 reciprocal scheme for non local part
 use partial core corrections
 calculate Harris-corrections to forces 
   (improved forces if not selfconsistent)
 use gradient corrections 
 use of overlap-Matrix (Vanderbilt PP)
 Fermi weights with tetrahedron method with Bloechl corrections


--------------------------------------------------------------------------------------------------------


  energy-cutoff  :      387.87
  volume of cell :      191.16
      direct lattice vectors                 reciprocal lattice vectors
     5.760589000  0.000000000  0.000000000     0.173593360  0.000000000  0.000000000
     0.000000000  5.760589000  0.000000000     0.000000000  0.173593360  0.000000000
     0.000000000  0.000000000  5.760589000     0.000000000  0.000000000  0.173593360

  length of vectors
     5.760589000  5.760589000  5.760589000     0.173593360  0.173593360  0.173593360


 
 k-points in units of 2pi/SCALE and weight: K-Points                                
   0.00000000  0.00000000  0.00000000       0.001
   0.01578121  0.00000000  0.00000000       0.002
   0.03156243  0.00000000  0.00000000       0.002
   0.04734364  0.00000000  0.00000000       0.002
   0.06312486  0.00000000  0.00000000       0.002
   0.07890607  0.00000000  0.00000000       0.002
   0.00000000  0.01578121  0.00000000       0.002
   0.01578121  0.01578121  0.00000000       0.002
   0.03156243  0.01578121  0.00000000       0.002
   0.04734364  0.01578121  0.00000000       0.002
   0.06312486  0.01578121  0.00000000       0.002
   0.07890607  0.01578121  0.00000000       0.002
  -0.07890607  0.01578121  0.00000000       0.002
  -0.06312486  0.01578121  0.00000000       0.002
  -0.04734364  0.01578121  0.00000000       0.002
  -0.03156243  0.01578121  0.00000000       0.002
  -0.01578121  0.01578121  0.00000000       0.002
   0.00000000  0.03156243  0.00000000       0.002
   0.01578121  0.03156243  0.00000000       0.002
   0.03156243  0.03156243  0.00000000       0.002
   0.04734364  0.03156243  0.00000000       0.002
   0.06312486  0.03156243  0.00000000       0.002
   0.07890607  0.03156243  0.00000000       0.002
  -0.07890607  0.03156243  0.00000000       0.002
  -0.06312486  0.03156243  0.00000000       0.002
  -0.04734364  0.03156243  0.00000000       0.002
  -0.03156243  0.03156243  0.00000000       0.002
  -0.01578121  0.03156243  0.00000000       0.002
   0.00000000  0.04734364  0.00000000       0.002
   0.01578121  0.04734364  0.00000000       0.002
   0.03156243  0.04734364  0.00000000       0.002
   0.04734364  0.04734364  0.00000000       0.002
   0.06312486  0.04734364  0.00000000       0.002
   0.07890607  0.04734364  0.00000000       0.002
  -0.07890607  0.04734364  0.00000000       0.002
  -0.06312486  0.04734364  0.00000000       0.002
  -0.04734364  0.04734364  0.00000000       0.002
  -0.03156243  0.04734364  0.00000000       0.002
  -0.01578121  0.04734364  0.00000000       0.002
   0.00000000  0.06312486  0.00000000       0.002
   0.01578121  0.06312486  0.00000000       0.002
[...]
     20     -20.1876      2.00000
     21     -20.1362      2.00000
     22     -20.1055      2.00000
     23     -20.0986      2.00000
     24     -20.0932      2.00000
     25     -20.0803      2.00000
     26     -20.0686      2.00000
     27     -20.0542      2.00000
     28     -20.0453      2.00000
     29     -20.0369      2.00000
     30     -20.0330      2.00000
     31     -20.0171      2.00000
     32     -20.0103      2.00000
     33     -20.0031      2.00000
     34     -19.9921      2.00000
     35     -19.9805      2.00000
     36     -19.9522      2.00000
     37     -19.9440      2.00000
     38     -19.9264      2.00000
     39     -19.9204      2.00000
     40     -19.9093      2.00000
     41      -7.5118      2.00000
     42      -6.5543      2.00000
     43      -5.4886      2.00000
     44      -5.2934      2.00000
     45      -2.8490      2.00000
     46      -2.7106      2.00000
     47      -1.7881      2.00000
     48      -1.2483      2.00000
     49       0.5087      2.00000
     50       0.7536      2.00000
     51       1.2906      2.00000
     52       1.4902      2.00000
     53       2.3263      2.00000
     54       2.6873      2.00000
     55       3.2744      2.00000
     56       3.7085      2.00000
     57       5.7832      0.00000
     58       6.0621      0.00000
     59       6.4036      0.00000
     60       6.8565      0.00000
     61       7.6230      0.00000
     62       7.8463      0.00000
     63       8.1328      0.00000
     64       8.5190      0.00000
     65       8.9244      0.00000
     66       9.1224      0.00000
     67       9.5631      0.00000
     68       9.8288      0.00000
     69       9.9667      0.00000
     70      10.3537      0.00000
     71      10.7920      0.00000
     72      10.9357      0.00000

 k-point 664 :      -0.2727   -0.0909    0.4545
  band No.  band energies     occupation 
      1     -20.9227      2.00000
      2     -20.7919      2.00000
      3     -20.7675      2.00000
      4     -20.7160      2.00000
      5     -20.6921      2.00000
      6     -20.6292      2.00000
      7     -20.5240      2.00000
      8     -20.4846      2.00000
      9     -20.4551      2.00000
     10     -20.4036      2.00000
     11     -20.3853      2.00000
     12     -20.3590      2.00000
     13     -20.3415      2.00000
     14     -20.3071      2.00000
     15     -20.2967      2.00000
     16     -20.2903      2.00000
     17     -20.2689      2.00000
     18     -20.2540      2.00000
     19     -20.2285      2.00000
     20     -20.1886      2.00000
     21     -20.1358      2.00000
     22     -20.1049      2.00000
     23     -20.0981      2.00000
     24     -20.0932      2.00000
     25     -20.0792      2.00000
     26     -20.0685      2.00000
     27     -20.0542      2.00000
     28     -20.0462      2.00000
     29     -20.0377      2.00000
     30     -20.0336      2.00000
     31     -20.0163      2.00000
     32     -20.0109      2.00000
     33     -20.0035      2.00000
     34     -19.9911      2.00000
     35     -19.9800      2.00000
     36     -19.9525      2.00000
     37     -19.9441      2.00000
     38     -19.9264      2.00000
     39     -19.9202      2.00000
     40     -19.9092      2.00000
     41      -7.5881      2.00000
     42      -6.6650      2.00000
     43      -5.2590      2.00000
     44      -5.0805      2.00000
     45      -3.1108      2.00000
     46      -2.9531      2.00000
     47      -1.5992      2.00000
     48      -0.9320      2.00000
     49       0.4788      2.00000
     50       0.7134      2.00000
     51       1.2580      2.00000
     52       1.5223      2.00000
     53       2.3804      2.00000
     54       2.4974      2.00000
     55       3.0505      2.00000
     56       3.5252      2.00000
     57       5.9128      0.00000
     58       6.2050      0.00000
     59       6.7144      0.00000
     60       6.8363      0.00000
     61       7.3091      0.00000
     62       7.5623      0.00000
     63       7.8816      0.00000
     64       8.5081      0.00000
     65       8.9380      0.00000
     66       9.1055      0.00000
     67       9.5475      0.00000
     68       9.7261      0.00000
     69      10.1149      0.00000
     70      10.4694      0.00000
     71      10.6403      0.00000
     72      11.2445      0.00000

 k-point 665 :      -0.1818   -0.0909    0.4545
  band No.  band energies     occupation 
      1     -20.9228      2.00000
      2     -20.7919      2.00000
      3     -20.7675      2.00000
      4     -20.7161      2.00000
      5     -20.6922      2.00000
      6     -20.6291      2.00000
      7     -20.5241      2.00000
      8     -20.4844      2.00000
      9     -20.4548      2.00000
     10     -20.4040      2.00000
     11     -20.3850      2.00000
     12     -20.3590      2.00000
     13     -20.3404      2.00000
     14     -20.3069      2.00000
     15     -20.2968      2.00000
     16     -20.2909      2.00000
     17     -20.2690      2.00000
     18     -20.2547      2.00000
     19     -20.2288      2.00000
     20     -20.1901      2.00000
     21     -20.1352      2.00000
     22     -20.1041      2.00000
     23     -20.0971      2.00000
     24     -20.0931      2.00000
     25     -20.0781      2.00000
     26     -20.0684      2.00000
     27     -20.0544      2.00000
     28     -20.0470      2.00000
     29     -20.0390      2.00000
     30     -20.0343      2.00000
     31     -20.0156      2.00000
     32     -20.0115      2.00000
     33     -20.0041      2.00000
     34     -19.9899      2.00000
     35     -19.9794      2.00000
     36     -19.9528      2.00000
     37     -19.9441      2.00000
     38     -19.9264      2.00000
     39     -19.9200      2.00000
     40     -19.9092      2.00000
     41      -7.6625      2.00000
     42      -6.7595      2.00000
     43      -4.9995      2.00000
     44      -4.8195      2.00000
     45      -3.3730      2.00000
     46      -3.2354      2.00000
     47      -1.3990      2.00000
     48      -0.6482      2.00000
     49       0.4817      2.00000
     50       0.6933      2.00000
     51       1.1307      2.00000
     52       1.4553      2.00000
     53       2.4035      2.00000
     54       2.5995      2.00000
     55       2.8187      2.00000
     56       3.3314      2.00000
     57       5.8241      0.00000
     58       6.2530      0.00000
     59       6.4868      0.00000
     60       6.8787      0.00000
     61       7.3160      0.00000
     62       7.4675      0.00000
     63       8.0063      0.00000
     64       8.5150      0.00000
     65       8.9501      0.00000
     66       9.2589      0.00000
     67       9.5470      0.00000
     68       9.6773      0.00000
     69       9.9962      0.00000
     70      10.1893      0.00000
     71      10.5938      0.00000
     72      11.2180      0.00000

 k-point 666 :      -0.0909   -0.0909    0.4545
  band No.  band energies     occupation 
      1     -20.9228      2.00000
      2     -20.7920      2.00000
      3     -20.7674      2.00000
      4     -20.7162      2.00000
      5     -20.6923      2.00000
      6     -20.6290      2.00000
      7     -20.5242      2.00000
      8     -20.4843      2.00000
      9     -20.4545      2.00000
     10     -20.4043      2.00000
     11     -20.3847      2.00000
     12     -20.3591      2.00000
     13     -20.3395      2.00000
     14     -20.3068      2.00000
     15     -20.2970      2.00000
     16     -20.2911      2.00000
     17     -20.2691      2.00000
     18     -20.2555      2.00000
     19     -20.2289      2.00000
     20     -20.1915      2.00000
     21     -20.1347      2.00000
     22     -20.1032      2.00000
     23     -20.0960      2.00000
     24     -20.0930      2.00000
     25     -20.0775      2.00000
     26     -20.0680      2.00000
     27     -20.0549      2.00000
     28     -20.0474      2.00000
     29     -20.0405      2.00000
     30     -20.0349      2.00000
     31     -20.0152      2.00000
     32     -20.0119      2.00000
     33     -20.0045      2.00000
     34     -19.9889      2.00000
     35     -19.9789      2.00000
     36     -19.9531      2.00000
     37     -19.9440      2.00000
     38     -19.9264      2.00000
     39     -19.9198      2.00000
     40     -19.9093      2.00000
     41      -7.7149      2.00000
     42      -6.8202      2.00000
     43      -4.7794      2.00000
     44      -4.5414      2.00000
     45      -3.6238      2.00000
     46      -3.4878      2.00000
     47      -1.2532      2.00000
     48      -0.4292      2.00000
     49       0.5057      2.00000
     50       0.6253      2.00000
     51       1.1409      2.00000
     52       1.2561      2.00000
     53       2.4710      2.00000
     54       2.6296      2.00000
     55       2.7633      2.00000
     56       3.2341      2.00000
     57       5.6088      0.00000
     58       5.9877      0.00000
     59       6.3725      0.00000
     60       6.7325      0.00000
     61       7.4591      0.00000
     62       7.7670      0.00000
     63       8.3610      0.00000
     64       8.5402      0.00000
     65       8.8734      0.00000
     66       9.1702      0.00000
     67       9.4250      0.00000
     68       9.6556      0.00000
     69       9.9583      0.00000
     70      10.2470      0.00000
     71      10.5532      0.00000
     72      11.0006      0.00000


--------------------------------------------------------------------------------------------------------


 soft charge-density along one line, spin component           1
         0         1         2         3         4         5         6         7         8         9
 total charge-density along one line
 
 pseudopotential strength for first ion, spin component:           1
-22.602   0.005   0.001   0.006   0.000   4.531  -0.003  -0.000
  0.005 -22.595   0.004  -0.001  -0.007  -0.003   4.528  -0.002
  0.001   0.004 -22.599   0.003   0.005  -0.000  -0.002   4.530
  0.006  -0.001   0.003 -22.604   0.006  -0.003   0.000  -0.002
  0.000  -0.007   0.005   0.006 -22.602  -0.000   0.003  -0.002
  4.531  -0.003  -0.000  -0.003  -0.000   1.880   0.001  -0.000
 -0.003   4.528  -0.002   0.000   0.003   0.001   1.881   0.001
 -0.000  -0.002   4.530  -0.002  -0.002  -0.000   0.001   1.881
 -0.003   0.000  -0.002   4.532  -0.003   0.002   0.000   0.001
 -0.000   0.003  -0.002  -0.003   4.532   0.000  -0.002   0.001
 -0.000  -0.001  -0.000  -0.000   0.000   0.001   0.001   0.000
 -0.000  -0.001  -0.000  -0.000  -0.000   0.001   0.002   0.000
  0.000   0.001   0.000  -0.001   0.001   0.003   0.002  -0.000
 -0.001  -0.001   0.001   0.000  -0.000  -0.000   0.001   0.002
 -0.001  -0.001  -0.000   0.001   0.001   0.001  -0.000  -0.001
  0.000   0.001   0.000  -0.001   0.001   0.005   0.004  -0.001
 -0.001  -0.001   0.001   0.000  -0.000  -0.001   0.002   0.004
 -0.001  -0.001  -0.000   0.001   0.001   0.002  -0.001  -0.002
 total augmentation occupancy for first ion, spin component:           1
  2.002   0.000  -0.000   0.001   0.000   0.010   0.001  -0.000   0.002   0.000   0.006  -0.004   0.001   0.036   0.001   0.002
  0.000   2.003   0.001   0.000  -0.001   0.001   0.012   0.002   0.001  -0.002   0.019  -0.012  -0.000   0.006   0.038   0.002
 -0.000   0.001   2.001   0.000   0.000  -0.000   0.002   0.005   0.001   0.000   0.003  -0.002   0.003   0.000   0.007  -0.001
  0.001   0.000   0.000   2.002   0.000   0.002   0.001   0.001   0.009   0.001   0.009  -0.006   0.034   0.005   0.002  -0.011
  0.000  -0.001   0.000   0.000   2.001   0.000  -0.002   0.000   0.001   0.005  -0.007   0.005   0.002   0.001  -0.007  -0.001
  0.010   0.001  -0.000   0.002   0.000   0.028   0.001   0.000   0.001   0.001   0.018  -0.009   0.009   0.158   0.001  -0.005
  0.001   0.012   0.002   0.001  -0.002   0.001   0.031   0.004   0.002  -0.004   0.048  -0.013   0.007   0.019   0.171  -0.003
 -0.000   0.002   0.005   0.001   0.000   0.000   0.004   0.009   0.002   0.001   0.006  -0.001   0.015   0.012   0.025  -0.002
  0.002   0.001   0.001   0.009   0.001   0.001   0.002   0.002   0.026   0.001   0.019  -0.005   0.147   0.027   0.019  -0.025
  0.000  -0.002   0.000   0.001   0.005   0.001  -0.004   0.001   0.001   0.009  -0.015   0.003   0.012   0.004  -0.026  -0.002
  0.006   0.019   0.003   0.009  -0.007   0.018   0.048   0.006   0.019  -0.015   3.073  -0.778   0.036   0.093   0.077  -0.010
 -0.004  -0.012  -0.002  -0.006   0.005  -0.009  -0.013  -0.001  -0.005   0.003  -0.778   0.381  -0.005  -0.074  -0.037   0.004
  0.001  -0.000   0.003   0.034   0.002   0.009   0.007   0.015   0.147   0.012   0.036  -0.005   1.728   0.160   0.039  -0.271
  0.036   0.006   0.000   0.005   0.001   0.158   0.019   0.012   0.027   0.004   0.093  -0.074   0.160   1.713   0.084  -0.047
  0.001   0.038   0.007   0.002  -0.007   0.001   0.171   0.025   0.019  -0.026   0.077  -0.037   0.039   0.084   1.613  -0.014
  0.002   0.002  -0.001  -0.011  -0.001  -0.005  -0.003  -0.002  -0.025  -0.002  -0.010   0.004  -0.271  -0.047  -0.014   0.049
 -0.011  -0.001   0.002   0.001  -0.000  -0.026  -0.004  -0.002  -0.008  -0.001  -0.022   0.015  -0.047  -0.264  -0.020   0.011
  0.000  -0.011  -0.003   0.001   0.005  -0.001  -0.026  -0.003  -0.004   0.003  -0.018   0.013  -0.014  -0.021  -0.238   0.004


------------------------ aborting loop because EDIFF is reached ----------------------------------------


    CHARGE:  cpu time    7.40: real time    7.40
    FORLOC:  cpu time    0.00: real time    0.00
    FORNL :  cpu time   32.45: real time   32.45
    STRESS:  cpu time   41.18: real time   41.18
    FORCOR:  cpu time    0.03: real time    0.03
    FORHAR:  cpu time    0.01: real time    0.01
    MIXING:  cpu time    0.00: real time    0.00

  FORCE on cell =-STRESS in cart. coord.  units (eV):
  Direction    XX          YY          ZZ          XY          YZ          ZX
  --------------------------------------------------------------------------------------
  Alpha Z   490.44268   490.44268   490.44268
  Ewald   -3577.85502 -3471.25642 -3394.86350    74.39081   157.76296   -28.94251
  Hartree  2021.84529  2097.90453  2159.14597    49.61854    94.47433   -16.60844
  E(xc)    -658.50383  -658.45072  -658.43702     0.06337     0.13892    -0.01667
  Local     -88.95121  -270.74585  -408.04457  -124.27633  -249.80213    44.35187
  n-local   229.39489   230.31682   230.45619     0.49440     2.20715    -0.26919
  augment  1006.83392  1006.41259  1006.35511     0.12857    -1.08350     0.37046
  Kinetic   578.48700   578.13105   577.83168    -1.00806    -1.66988     0.66219
  Fock        0.00000     0.00000     0.00000     0.00000     0.00000     0.00000
  -------------------------------------------------------------------------------------
  Total       1.69372     2.75468     2.88654    -0.58870     2.02785    -0.45231
  in kB      14.19555    23.08770    24.19291    -4.93402    16.99594    -3.79093
  external pressure =       20.49 kB  Pullay stress =        0.00 kB


 VOLUME and BASIS-vectors are now :
 -----------------------------------------------------------------------------
  energy-cutoff  :      387.87
  volume of cell :      191.16
      direct lattice vectors                 reciprocal lattice vectors
     5.760589000  0.000000000  0.000000000     0.173593360  0.000000000  0.000000000
     0.000000000  5.760589000  0.000000000     0.000000000  0.173593360  0.000000000
     0.000000000  0.000000000  5.760589000     0.000000000  0.000000000  0.173593360

  length of vectors
     5.760589000  5.760589000  5.760589000     0.173593360  0.173593360  0.173593360


 FORCES acting on ions
    electron-ion (+dipol)            ewald-force                    non-local-force                 convergence-correction
 -----------------------------------------------------------------------------------------------
   0.855E+02 0.480E+02 0.477E+02   -.888E+02 -.485E+02 -.503E+02   0.143E+01 -.284E+00 0.180E+01   0.909E-01 0.274E-01 -.137E-02
   0.224E+03 -.799E+02 0.274E+01   -.232E+03 0.829E+02 -.238E+01   0.357E+01 -.143E+01 -.145E+00   -.149E-01 0.126E-01 -.329E-02
   -.165E+03 0.129E+03 -.845E+02   0.171E+03 -.133E+03 0.863E+02   -.286E+01 0.230E+01 -.386E+00   -.234E-01 -.302E-01 0.534E-01
   -.101E+03 -.412E+02 0.669E+02   0.104E+03 0.436E+02 -.693E+02   -.119E+01 -.132E+01 0.869E+00   -.579E-01 -.157E-01 -.247E-01
   0.137E+02 0.822E+02 0.775E+02   -.126E+02 -.859E+02 -.795E+02   -.795E+00 0.170E+01 -.204E+00   -.168E-01 0.355E-01 -.527E-01
   -.514E+02 -.140E+03 -.725E+02   0.540E+02 0.144E+03 0.750E+02   -.106E+01 -.137E+01 -.760E+00   0.359E-01 -.771E-03 0.137E-01
   0.359E+02 0.757E+02 -.406E+02   -.371E+02 -.786E+02 0.421E+02   0.932E+00 0.158E+01 -.758E+00   -.278E-01 0.428E-01 -.229E-01
   -.404E+02 -.729E+02 0.101E+01   0.423E+02 0.753E+02 -.186E+01   -.139E+01 -.138E+01 0.132E+01   0.245E-01 -.578E-01 0.388E-01
 -----------------------------------------------------------------------------------------------
   0.134E+01 0.209E+00 -.173E+01   0.135E-12 0.000E+00 0.835E-13   -.136E+01 -.201E+00 0.174E+01   0.105E-01 0.139E-01 0.881E-03
 
 
 POSITION                                       TOTAL-FORCE (eV/Angst)
 -----------------------------------------------------------------------------------
      0.13952      5.72339      5.67711        -1.872950     -0.763874     -0.760306
      0.10067      2.64230      2.79250        -4.540178      1.527178      0.209349
      2.63090      5.69068      2.68460         2.495396     -2.025017      1.486297
      2.60500      2.65350      0.02230         1.745432      1.063212     -1.560510
      1.34790      1.39840      1.51680         0.338954     -1.948907     -2.324487
      1.28520      3.99760      4.12810         1.571643      2.568010      1.772824
      4.21950      1.43710      4.17990        -0.264686     -1.370086      0.664016
      4.22000      4.11300      1.22960         0.526389      0.949485      0.512817
 -----------------------------------------------------------------------------------
    total drift:                               -0.009750      0.021684      0.004945


--------------------------------------------------------------------------------------------------------



  FREE ENERGIE OF THE ION-ELECTRON SYSTEM (eV)
  ---------------------------------------------------
  free  energy   TOTEN  =       -33.97951776 eV

  energy  without entropy=      -33.97951776  energy(sigma->0) =      -33.97951776
 


--------------------------------------------------------------------------------------------------------


    POTLOK:  cpu time    0.04: real time    0.04


--------------------------------------------------------------------------------------------------------


     LOOP+:  cpu time 2892.81: real time 2946.98
    4ORBIT:  cpu time    0.00: real time    0.00
 BZINTS: Fermi energy:  4.399641;112.000000 electrons
         Band energy:***********;  BLOECHL correction: -0.001295

 total amount of memory used by VASP on root node   691072. kBytes
========================================================================

   base      :      30000. kBytes
   nonl-proj :     321131. kBytes
   fftplans  :       1306. kBytes
   grid      :       3998. kBytes
   one-center:        124. kBytes
   wavefun   :     334513. kBytes
 
  
  
 General timing and accounting informations for this job:
 ========================================================
  
                  Total CPU time used (sec):     2962.716
                            User time (sec):     2953.644
                          System time (sec):        9.072
                         Elapsed time (sec):     3017.441
  
                   Maximum memory used (kb):     1436592.
                   Average memory used (kb):           0.
  
                          Minor page faults:       533359
                          Major page faults:            0
                 Voluntary context switches:         4340
