LAMMPS MgO

64        atoms

2 atom types

            0       8.482      xlo xhi
            0       8.482      ylo yhi
            0       8.482      zlo zhi
0 0 0 xy xz yz

Masses

            1       24.305
            2       15.9994

Atoms

1	1	0	0	0	0	0	0	0
2	1	0	0	2.1205	2.1205	0	0	0
3	1	0	2.1205	0	2.1205	0	0	0
4	1	0	2.1205	2.1205	0	0	0	0
5	1	0	0	0	4.241	0	0	0
6	1	0	0	2.1205	6.3615	0	0	0
7	1	0	2.1205	0	6.3615	0	0	0
8	1	0	2.1205	2.1205	4.241	0	0	0
9	1	0	0	4.241	0	0	0	0
10	1	0	0	6.3615	2.1205	0	0	0
11	1	0	2.1205	4.241	2.1205	0	0	0
12	1	0	0	4.241	4.241	0	0	0
13	1	0	0	6.3615	6.3615	0	0	0
14	1	0	2.1205	4.241	6.3615	0	0	0
15	1	0	2.1205	6.3615	4.241	0	0	0
16	1	0	2.1205	6.3615	0	0	0	0
17	1	0	4.241	0	0	0	0	0
18	1	0	4.241	2.1205	2.1205	0	0	0
19	1	0	6.3615	0	2.1205	0	0	0
20	1	0	6.3615	2.1205	0	0	0	0
21	1	0	4.241	0	4.241	0	0	0
22	1	0	4.241	2.1205	6.3615	0	0	0
23	1	0	6.3615	0	6.3615	0	0	0
24	1	0	6.3615	2.1205	4.241	0	0	0
25	1	0	4.241	4.241	0	0	0	0
26	1	0	4.241	6.3615	2.1205	0	0	0
27	1	0	6.3615	4.241	2.1205	0	0	0
28	1	0	6.3615	6.3615	0	0	0	0
29	1	0	4.241	4.241	4.241	0	0	0
30	1	0	4.241	6.3615	6.3615	0	0	0
31	1	0	6.3615	4.241	6.3615	0	0	0
32	1	0	6.3615	6.3615	4.241	0	0	0
33	2	0	2.1205	0	0	0	0	0
34	2	0	2.1205	2.1205	2.1205	0	0	0
35	2	0	0	0	2.1205	0	0	0
36	2	0	0	2.1205	0	0	0	0
37	2	0	2.1205	0	4.241	0	0	0
38	2	0	2.1205	2.1205	6.3615	0	0	0
39	2	0	0	0	6.3615	0	0	0
40	2	0	0	2.1205	4.241	0	0	0
41	2	0	2.1205	4.241	0	0	0	0
42	2	0	2.1205	6.3615	2.1205	0	0	0
43	2	0	0	4.241	2.1205	0	0	0
44	2	0	0	6.3615	0	0	0	0
45	2	0	2.1205	4.241	4.241	0	0	0
46	2	0	2.1205	6.3615	6.3615	0	0	0
47	2	0	0	4.241	6.3615	0	0	0
48	2	0	0	6.3615	4.241	0	0	0
49	2	0	6.3615	0	0	0	0	0
50	2	0	6.3615	2.1205	2.1205	0	0	0
51	2	0	4.241	0	2.1205	0	0	0
52	2	0	4.241	2.1205	0	0	0	0
53	2	0	6.3615	0	4.241	0	0	0
54	2	0	6.3615	2.1205	6.3615	0	0	0
55	2	0	4.241	0	6.3615	0	0	0
56	2	0	4.241	2.1205	4.241	0	0	0
57	2	0	6.3615	4.241	0	0	0	0
58	2	0	6.3615	6.3615	2.1205	0	0	0
59	2	0	4.241	4.241	2.1205	0	0	0
60	2	0	4.241	6.3615	0	0	0	0
61	2	0	6.3615	4.241	4.241	0	0	0
62	2	0	6.3615	6.3615	6.3615	0	0	0
63	2	0	4.241	4.241	6.3615	0	0	0
64	2	0	4.241	6.3615	4.241	0	0	0
