64
Atoms. Timestep: 0
1 0 0 0
1 0 2.1205 2.1205
1 2.1205 0 2.1205
1 2.1205 2.1205 0
1 0 0 4.241
1 0 2.1205 6.3615
1 2.1205 0 6.3615
1 2.1205 2.1205 4.241
1 0 4.241 0
1 0 6.3615 2.1205
1 2.1205 4.241 2.1205
1 0 4.241 4.241
1 0 6.3615 6.3615
1 2.1205 4.241 6.3615
1 2.1205 6.3615 4.241
1 2.1205 6.3615 0
1 4.241 0 0
1 4.241 2.1205 2.1205
1 6.3615 0 2.1205
1 6.3615 2.1205 0
1 4.241 0 4.241
1 4.241 2.1205 6.3615
1 6.3615 0 6.3615
1 6.3615 2.1205 4.241
1 4.241 4.241 0
1 4.241 6.3615 2.1205
1 6.3615 4.241 2.1205
1 6.3615 6.3615 0
1 4.241 4.241 4.241
1 4.241 6.3615 6.3615
1 6.3615 4.241 6.3615
1 6.3615 6.3615 4.241
2 2.1205 0 0
2 2.1205 2.1205 2.1205
2 0 0 2.1205
2 0 2.1205 0
2 2.1205 0 4.241
2 2.1205 2.1205 6.3615
2 0 0 6.3615
2 0 2.1205 4.241
2 2.1205 4.241 0
2 2.1205 6.3615 2.1205
2 0 4.241 2.1205
2 0 6.3615 0
2 2.1205 4.241 4.241
2 2.1205 6.3615 6.3615
2 0 4.241 6.3615
2 0 6.3615 4.241
2 6.3615 0 0
2 6.3615 2.1205 2.1205
2 4.241 0 2.1205
2 4.241 2.1205 0
2 6.3615 0 4.241
2 6.3615 2.1205 6.3615
2 4.241 0 6.3615
2 4.241 2.1205 4.241
2 6.3615 4.241 0
2 6.3615 6.3615 2.1205
2 4.241 4.241 2.1205
2 4.241 6.3615 0
2 6.3615 4.241 4.241
2 6.3615 6.3615 6.3615
2 4.241 4.241 6.3615
2 4.241 6.3615 4.241
