ITEM: TIMESTEP
0
ITEM: NUMBER OF ATOMS
64
ITEM: BOX BOUNDS xy xz yz pp pp pp
0.0000000000000000e+00 8.4819999999999993e+00 0.0000000000000000e+00
0.0000000000000000e+00 8.4819999999999993e+00 0.0000000000000000e+00
0.0000000000000000e+00 8.4819999999999993e+00 0.0000000000000000e+00
ITEM: ATOMS fx fy fz 
1.77636e-15 -9.32587e-15 -2.28706e-14 
-6.21725e-15 2.04281e-14 9.4369e-15 
1.17684e-14 -1.42109e-14 1.11161e-14 
1.72085e-14 2.37588e-14 -1.67678e-14 
-1.33227e-14 -2.04281e-14 3.39728e-14 
-1.42109e-14 8.43769e-15 4.05231e-14 
-3.55271e-15 -1.67644e-14 3.19467e-14 
-2.10942e-15 7.21645e-15 2.36755e-14 
-1.15463e-14 5.32907e-15 -2.15383e-14 
-7.99361e-15 1.77636e-14 1.68754e-14 
-1.33227e-15 -2.22045e-15 3.47916e-14 
-1.59872e-14 3.55271e-15 -5.9952e-15 
-1.59872e-14 1.55431e-14 3.35287e-14 
-5.88418e-15 -3.27516e-15 5.44773e-14 
-6.55032e-15 2.69229e-14 2.82829e-14 
2.66454e-15 2.55351e-14 -1.11959e-14 
7.50788e-15 -7.50094e-15 -1.95139e-14 
-5.44009e-15 7.10196e-15 4.25597e-14 
1.92225e-14 -1.14691e-14 1.59174e-14 
1.56784e-14 2.80583e-14 -1.5838e-14 
-4.57967e-15 -1.83326e-14 -3.39832e-15 
-5.52336e-15 -2.91434e-16 5.63521e-14 
1.03459e-14 -7.03083e-15 2.57963e-14 
3.30083e-14 4.0779e-15 2.83512e-14 
3.20577e-15 3.47639e-15 -1.52311e-14 
-3.78864e-15 1.74513e-14 4.1239e-14 
2.63314e-14 -3.91809e-15 4.50056e-14 
1.70124e-14 1.78403e-14 -1.00632e-14 
1.83187e-15 1.22229e-14 -1.25222e-14 
-1.44607e-14 2.51917e-14 4.77099e-14 
2.14516e-14 -6.1381e-15 5.12269e-14 
1.96666e-14 1.25126e-14 3.21245e-14 
-1.02141e-14 -1.48215e-14 -1.49498e-14 
-8.88178e-15 -3.60822e-15 3.85178e-14 
-9.76996e-15 5.77316e-15 1.45439e-14 
-9.76996e-15 -1.5099e-14 -1.46549e-14 
4.44089e-15 -2.01505e-14 1.70003e-15 
7.77156e-16 4.4964e-15 2.99656e-14 
-2.66454e-15 4.44089e-15 5.07372e-14 
-3.55271e-15 2.66454e-15 7.99361e-15 
1.77636e-15 -2.42029e-14 -1.85581e-14 
-3.33067e-15 1.88738e-14 3.8549e-14 
-6.21725e-15 -1.5099e-14 1.43219e-14 
2.66454e-15 6.21725e-15 1.77636e-15 
-5.21805e-15 -1.59317e-14 4.73926e-15 
4.66294e-15 2.28706e-14 4.86902e-14 
-1.77636e-15 -1.02141e-14 4.78506e-14 
-1.77636e-14 2.17604e-14 -1.16573e-14 
1.29931e-14 -4.80649e-15 -1.22844e-14 
5.46785e-15 -5.24797e-15 1.35856e-14 
-1.94011e-14 1.11022e-14 1.07952e-14 
-2.37033e-14 -1.11022e-16 -1.02249e-14 
1.61017e-14 -9.69429e-15 -1.30606e-14 
1.52395e-14 4.07855e-15 3.82322e-14 
-9.8116e-15 1.58901e-15 4.46813e-14 
-6.35603e-15 1.48839e-15 -2.80418e-15 
1.96509e-14 -1.41324e-14 -6.73466e-15 
7.68309e-15 1.47341e-14 1.91381e-14 
-1.61537e-14 -3.85109e-15 -2.68882e-17 
-2.33286e-14 2.07716e-14 1.17603e-15 
1.12375e-14 -1.1467e-14 -1.29496e-14 
1.90993e-15 1.41315e-15 1.78035e-14 
-4.31599e-15 4.9058e-15 1.78984e-14 
-5.68989e-15 1.50123e-14 -8.17597e-15 
