ITEM: TIMESTEP
0
ITEM: NUMBER OF ATOMS
64
ITEM: BOX BOUNDS pp pp pp
0.0000000000000000e+00 8.4819999999999993e+00
0.0000000000000000e+00 8.4819999999999993e+00
0.0000000000000000e+00 8.4819999999999993e+00
ITEM: ATOMS fx fy fz 
4.83496e-15 4.83496e-15 4.83496e-15 
4.83496e-15 0 0 
0 4.83496e-15 0 
0 0 4.83496e-15 
4.83496e-15 4.83496e-15 4.83496e-15 
4.83496e-15 0 -9.66992e-15 
0 4.83496e-15 -9.66992e-15 
0 0 4.83496e-15 
4.83496e-15 4.83496e-15 4.83496e-15 
4.83496e-15 -9.66992e-15 0 
0 4.83496e-15 0 
4.83496e-15 4.83496e-15 4.83496e-15 
4.83496e-15 -9.66992e-15 -9.66992e-15 
0 4.83496e-15 -9.66992e-15 
0 -9.66992e-15 4.83496e-15 
0 -9.66992e-15 4.83496e-15 
4.83496e-15 4.83496e-15 4.83496e-15 
4.83496e-15 0 0 
-9.66992e-15 4.83496e-15 0 
-9.66992e-15 0 4.83496e-15 
4.83496e-15 4.83496e-15 4.83496e-15 
4.83496e-15 0 -9.66992e-15 
-9.66992e-15 4.83496e-15 -9.66992e-15 
-9.66992e-15 0 4.83496e-15 
4.83496e-15 4.83496e-15 4.83496e-15 
4.83496e-15 -9.66992e-15 0 
-9.66992e-15 4.83496e-15 0 
-9.66992e-15 -9.66992e-15 4.83496e-15 
4.83496e-15 4.83496e-15 4.83496e-15 
4.83496e-15 -9.66992e-15 -9.66992e-15 
-9.66992e-15 4.83496e-15 -9.66992e-15 
-9.66992e-15 -9.66992e-15 4.83496e-15 
0 4.83496e-15 4.83496e-15 
0 0 0 
4.83496e-15 4.83496e-15 0 
4.83496e-15 0 4.83496e-15 
0 4.83496e-15 4.83496e-15 
0 0 -9.66992e-15 
4.83496e-15 4.83496e-15 -9.66992e-15 
4.83496e-15 0 4.83496e-15 
0 4.83496e-15 4.83496e-15 
0 -9.66992e-15 0 
4.83496e-15 4.83496e-15 0 
4.83496e-15 -9.66992e-15 4.83496e-15 
0 4.83496e-15 4.83496e-15 
0 -9.66992e-15 -9.66992e-15 
4.83496e-15 4.83496e-15 -9.66992e-15 
4.83496e-15 -9.66992e-15 4.83496e-15 
-9.66992e-15 4.83496e-15 4.83496e-15 
-9.66992e-15 0 0 
4.83496e-15 4.83496e-15 0 
4.83496e-15 0 4.83496e-15 
-9.66992e-15 4.83496e-15 4.83496e-15 
-9.66992e-15 0 -9.66992e-15 
4.83496e-15 4.83496e-15 -9.66992e-15 
4.83496e-15 0 4.83496e-15 
-9.66992e-15 4.83496e-15 4.83496e-15 
-9.66992e-15 -9.66992e-15 0 
4.83496e-15 4.83496e-15 0 
4.83496e-15 -9.66992e-15 4.83496e-15 
-9.66992e-15 4.83496e-15 4.83496e-15 
-9.66992e-15 -9.66992e-15 -9.66992e-15 
4.83496e-15 4.83496e-15 -9.66992e-15 
4.83496e-15 -9.66992e-15 4.83496e-15 
ITEM: TIMESTEP
100
ITEM: NUMBER OF ATOMS
64
ITEM: BOX BOUNDS pp pp pp
0.0000000000000000e+00 8.4819999999999993e+00
0.0000000000000000e+00 8.4819999999999993e+00
0.0000000000000000e+00 8.4819999999999993e+00
ITEM: ATOMS fx fy fz 
0.146272 0.0480559 -0.351716 
0.181451 -0.670522 -0.248921 
0.265063 1.16444 0.126036 
-0.124565 0.17667 0.0412575 
-0.129548 1.31628 -0.328511 
0.262026 -0.618316 -0.0595363 
-0.0288345 0.423376 0.240855 
0.130843 -1.53801 0.155525 
-0.525121 0.242122 0.343276 
0.0951997 -0.783829 0.628283 
-0.395844 0.95752 0.445417 
-1.07187 1.50775 0.302849 
-0.204623 -0.697011 0.241407 
0.593777 0.22317 0.187626 
-0.0590491 -1.25553 0.147075 
-0.876421 0.666484 0.311947 
0.509552 0.495407 0.121158 
0.325879 -0.642553 -0.631518 
0.41757 -0.235987 -0.515223 
-0.0996093 0.44773 -0.479453 
-0.296099 0.122207 0.660267 
0.374533 -0.0676125 -0.63887 
0.353362 -0.371035 -0.430733 
0.0423568 -0.00829302 -0.161023 
-0.131025 1.00061 -0.499556 
0.223261 -0.638582 0.71392 
-0.457079 -0.0129263 0.732803 
-0.0356717 0.136036 -0.019241 
-0.45534 -0.112001 -0.0681153 
-0.331996 0.0802589 0.550857 
0.650889 -0.390576 0.920332 
-0.668486 0.452268 -0.565896 
-0.385375 -0.811571 -0.265612 
0.52995 -0.873825 -0.0997274 
-0.710921 1.03486 0.909574 
0.661465 -0.0721495 -0.132714 
1.43927 1.6047 0.0544773 
-0.494837 0.262459 -0.0155202 
-0.609882 0.365166 -0.367839 
-0.157591 -0.819577 0.440235 
0.781137 -0.137199 -0.130117 
0.061485 -1.35442 -0.798201 
0.805743 0.50063 -1.00572 
0.338285 0.249539 -1.92677 
0.808243 1.06184 -0.469337 
0.22151 -0.945016 0.375017 
-0.967471 0.569711 0.473708 
1.02408 -1.79774 0.767407 
-0.089745 -0.599016 0.789585 
-1.03236 0.216046 0.320041 
-0.110402 1.0097 -0.213692 
-0.437653 -0.49638 0.770516 
-0.799295 -0.00788163 0.375191 
-0.302789 0.696044 0.467014 
0.298159 0.324871 -0.352159 
-0.242646 -0.99135 0.170841 
-0.407207 -0.505221 -1.59928 
-0.38933 -0.213448 -0.0482422 
0.162688 0.314363 -0.00454492 
0.370584 -0.640492 -0.549194 
0.686585 -0.537482 -0.0660949 
0.310989 0.205607 0.602776 
0.146891 -0.150051 0.305816 
-0.190414 1.11969 -0.650012 
ITEM: TIMESTEP
200
ITEM: NUMBER OF ATOMS
64
ITEM: BOX BOUNDS pp pp pp
0.0000000000000000e+00 8.4819999999999993e+00
0.0000000000000000e+00 8.4819999999999993e+00
0.0000000000000000e+00 8.4819999999999993e+00
ITEM: ATOMS fx fy fz 
-0.0932701 0.47028 0.0177096 
0.474748 -0.244438 0.292958 
0.160413 0.308117 0.717092 
-0.237765 0.344355 -0.264455 
0.0283459 1.08673 -0.407875 
-0.220826 -0.737651 -0.00455014 
0.476166 -0.146717 -0.130905 
-0.101367 -0.696976 0.0355063 
-0.153144 -0.123754 0.273248 
-0.306546 -0.00401977 -0.0918867 
0.268339 0.511631 0.319739 
-0.6892 1.04308 0.327466 
-0.351356 -0.404349 0.188468 
0.415423 0.018803 0.589004 
-0.340891 -0.742971 0.379999 
-0.207316 -0.438583 0.789452 
-0.0564848 0.955316 0.871687 
0.459559 -0.616622 -0.350503 
0.00384446 -0.57212 0.201972 
0.29705 -0.313951 -0.209344 
0.366115 -0.134209 -0.218436 
-0.0462184 0.758685 -0.466313 
-0.0349559 -0.0287082 -0.208578 
0.154608 0.360725 -0.878137 
-0.245189 0.0845536 -0.149578 
-0.278569 -0.538876 0.792581 
-0.0366344 -0.898508 0.698351 
-0.148207 0.427129 -0.447715 
-0.391673 0.1962 -0.632383 
-0.37974 0.401733 0.263393 
0.31831 -0.105544 0.218787 
0.247604 -0.264941 0.053128 
0.313655 0.12253 -0.587879 
-1.25399 -1.22123 0.118339 
0.229941 1.38256 -0.882766 
-0.2677 0.527694 0.504766 
-1.10873 0.882239 -0.189819 
-0.277134 -0.701775 -0.327476 
0.541513 0.316674 0.842014 
-0.318077 -1.82176 -0.308702 
-0.573309 -0.324959 -0.18968 
-0.523715 -0.465217 0.554402 
-0.0967595 1.26043 0.313168 
-0.04751 -0.128761 1.2147 
-0.0545685 1.44024 0.125269 
0.124723 0.329253 -1.17423 
0.445864 0.541708 -1.15137 
0.268962 -1.10245 -2.09402 
0.404594 -0.537677 0.273953 
0.32632 -0.00665121 0.694251 
-0.397616 -0.150382 -0.0495171 
0.249454 0.006987 -0.0527685 
1.04374 -0.573718 0.543581 
0.169153 -0.203859 0.334627 
-0.320988 -0.242674 -0.442487 
0.0202862 1.04551 0.568813 
0.244286 -1.1897 0.172191 
0.140061 -0.0109586 0.386331 
0.638655 0.765868 -0.0276759 
0.1892 -0.0577461 -0.344971 
0.259315 0.0179875 -1.12323 
-0.113525 0.524807 0.0540926 
-0.650012 0.151254 -0.419573 
1.04274 -0.530616 0.0957831 
ITEM: TIMESTEP
300
ITEM: NUMBER OF ATOMS
64
ITEM: BOX BOUNDS pp pp pp
0.0000000000000000e+00 8.4819999999999993e+00
0.0000000000000000e+00 8.4819999999999993e+00
0.0000000000000000e+00 8.4819999999999993e+00
ITEM: ATOMS fx fy fz 
0.225415 0.734102 0.0431581 
0.11252 0.522138 0.559742 
0.501683 -0.47396 -0.645741 
0.213429 -1.0923 0.116339 
1.19027 -0.120004 0.502218 
-0.262431 0.466619 0.881054 
-0.45834 0.345405 0.47999 
-0.109294 1.11029 -0.148672 
0.35461 0.271172 -0.617722 
0.437409 0.0140365 -0.951576 
0.483851 -0.783289 -0.0396911 
1.05022 0.155621 -0.0753595 
0.149147 0.373572 -0.619741 
-0.94081 -0.106521 0.0122437 
0.423551 1.42022 0.263661 
0.882486 0.15101 -0.420062 
-0.541706 -0.896754 -0.67154 
-0.260533 0.316687 0.222844 
-0.0291073 -0.394384 0.289224 
-0.363606 -0.0416191 -0.425297 
0.00863302 0.326503 0.36539 
-0.446955 0.355751 0.48868 
0.0415911 0.402536 0.826273 
-0.419778 -1.18452 0.278406 
0.357629 0.037213 0.343343 
-0.330834 0.629412 -1.43072 
0.922586 -0.227778 -0.939589 
0.0449623 -0.646172 0.74733 
0.869747 -0.198291 0.877248 
0.149758 0.761318 -0.452477 
-0.391621 0.169485 -0.375923 
0.00177789 -0.390388 0.405751 
0.178375 -0.0119062 -0.116043 
1.18651 0.839713 -0.409271 
-0.771599 -0.597412 0.392099 
0.260989 -0.187209 -0.83765 
0.402323 -1.11539 -0.0784946 
0.773498 0.641659 0.264866 
0.304937 -0.677446 -0.989131 
0.0956455 0.314188 -0.601134 
-0.25006 1.00229 0.429513 
0.476204 0.545484 -0.576673 
-0.298762 -0.0819093 -0.199205 
-0.745657 -0.46443 -0.647997 
-0.554132 -1.37033 -0.00376864 
-0.614286 -0.610409 1.02162 
0.119246 -0.822502 0.691708 
-0.0609953 -0.478497 1.991 
0.746711 -0.301534 -0.211923 
-1.00915 0.230865 0.0969472 
0.486476 -0.591937 -0.140915 
-0.345424 0.430351 -0.273912 
-1.36232 0.61577 -0.5606 
-0.10996 -0.00896805 0.11098 
0.283514 0.104544 0.60987 
0.28705 0.0188 -1.08555 
-0.869901 0.600137 0.197397 
-0.198832 0.219629 -0.563631 
-0.805805 -0.590116 -0.767948 
-0.886169 0.803971 0.767977 
-1.25913 0.218069 0.80267 
-0.0523348 -0.772317 -0.325854 
1.35502 -0.325564 -0.276676 
-0.628229 0.415309 1.40095 
ITEM: TIMESTEP
400
ITEM: NUMBER OF ATOMS
64
ITEM: BOX BOUNDS pp pp pp
0.0000000000000000e+00 8.4819999999999993e+00
0.0000000000000000e+00 8.4819999999999993e+00
0.0000000000000000e+00 8.4819999999999993e+00
ITEM: ATOMS fx fy fz 
-0.0433946 -0.266187 0.484535 
-0.810316 0.709619 0.76686 
-0.654655 -1.34634 -0.0249911 
-0.364977 0.471643 -0.139786 
-0.644756 -1.08662 0.100173 
0.329395 0.880537 0.445072 
0.275436 -0.350379 -0.576502 
-0.179129 1.45775 -0.000856089 
0.104767 0.285289 -0.135593 
-0.5381 0.98668 -0.356014 
0.494034 -1.17903 -0.084785 
0.00567298 -1.84358 -0.685783 
-1.00523 1.18135 -1.06584 
0.119314 1.46865 -0.652313 
-0.635582 0.874947 -0.422084 
0.156879 -1.181 -0.0287384 
0.66607 0.0169587 0.186208 
-0.795559 0.241205 0.287728 
-0.0298927 -0.122227 0.664686 
0.127722 -0.813375 0.856218 
0.226344 -0.0977897 -0.888203 
0.115184 -0.230539 -0.205333 
-0.0737059 -0.0805755 0.662004 
-0.17488 0.521911 0.25009 
-0.373982 -0.102339 0.0816852 
0.553241 0.328377 -0.00497045 
0.515792 -0.0879464 -0.538129 
0.756709 -0.219275 0.366332 
-0.379108 0.273295 -0.455164 
-0.328996 -0.599791 -0.655403 
-0.212106 0.350098 -1.18496 
0.578555 -0.64109 0.44852 
-0.0454655 1.21697 0.733936 
0.404688 1.66515 0.317349 
1.14487 -0.631043 -0.335234 
-0.178057 -0.929482 -0.847672 
-0.305354 -1.10807 -0.261672 
-0.895749 -1.19212 -0.112851 
-0.739569 -0.467516 -0.367987 
0.582287 0.694061 -0.39165 
-0.186821 -0.444501 -0.198254 
-0.156556 0.89164 0.725597 
-0.294866 -1.13146 0.58527 
0.15238 0.848757 1.18696 
0.219073 -1.12119 0.899962 
1.43325 0.0700534 -0.348095 
0.674797 -1.49247 0.557982 
-0.249794 2.28211 0.0688658 
-0.625749 1.02804 -0.709195 
1.37345 0.224113 -0.394939 
-0.620751 -0.0215404 0.689152 
0.342621 0.112307 -0.295225 
0.71683 -0.0231788 -0.492093 
0.377338 -0.128538 -0.769286 
0.686854 0.305872 0.0244069 
0.00326344 0.751202 0.0585172 
0.402699 0.100894 0.937495 
-0.0208998 0.0315126 -0.432689 
-0.876031 -1.02182 0.293494 
-0.733611 0.107032 1.26821 
0.431524 -0.0267149 0.749056 
-0.429125 -0.244715 -0.26084 
-0.763094 0.495296 0.208388 
0.394821 -0.640848 -0.581633 
ITEM: TIMESTEP
500
ITEM: NUMBER OF ATOMS
64
ITEM: BOX BOUNDS pp pp pp
0.0000000000000000e+00 8.4819999999999993e+00
0.0000000000000000e+00 8.4819999999999993e+00
0.0000000000000000e+00 8.4819999999999993e+00
ITEM: ATOMS fx fy fz 
0.863544 -0.329277 0.0516566 
-0.429214 0.481695 -0.471216 
0.286885 0.212072 -0.868991 
0.218083 -0.853438 -0.276783 
-0.099207 -1.31456 -0.0073845 
0.0366129 -0.352216 -0.113514 
0.283288 1.48665 0.344535 
0.17042 -0.799872 -0.245029 
-0.654964 -0.17684 -0.0728745 
0.804227 -0.161206 0.0403557 
-0.300288 0.406808 -0.499324 
-1.17349 -0.680485 0.182361 
-0.425546 -0.120815 0.655887 
0.211414 0.0244582 -0.528495 
0.766988 -0.31215 -0.0590244 
0.121835 1.13628 -0.616654 
0.263551 0.0375114 -0.552958 
-0.657828 -0.0434141 -0.556677 
-0.453077 0.417917 0.137541 
-0.530611 0.863458 0.134326 
-0.652198 0.259608 0.402312 
0.558671 -0.161979 -0.550862 
0.882496 -0.137325 -0.104845 
-0.274765 -0.339529 0.817753 
-0.118651 0.0223692 -1.05479 
-0.589641 -0.405702 0.600164 
-0.473698 -0.197067 -0.426716 
-0.361748 0.155061 -0.196811 
-0.89006 -0.0159509 -0.488292 
-0.705483 -0.509253 0.614061 
0.339003 -0.27314 0.22567 
-0.701737 1.12927 -0.318054 
-1.14108 -0.439717 0.173295 
-0.00415198 -0.593156 0.247685 
-0.085245 -1.3499 -0.88279 
0.0167526 0.641766 0.630963 
0.125988 0.485637 0.594182 
0.0595065 -0.366742 -0.0263465 
0.149209 -0.359322 0.519088 
-0.237551 1.38478 -0.00894258 
0.664716 0.617998 0.604715 
-0.502405 0.709924 0.267965 
-0.133725 -0.372304 0.284793 
-0.673529 -0.476942 0.777099 
1.2433 0.547303 -0.0216038 
0.225044 -0.950688 0.478321 
-0.461272 0.999037 -0.349641 
-0.613204 0.907999 -0.970431 
-0.204916 -0.726093 0.217125 
1.19868 0.256395 -0.578497 
0.415518 -0.282943 0.0617468 
0.299482 -0.301011 0.164451 
1.08742 -0.345844 -0.330136 
-0.443397 -0.0937099 -0.350922 
-1.29528 0.555586 0.0416076 
0.261863 -0.704402 0.951723 
0.437593 0.347462 0.109158 
0.456778 -0.292781 0.621434 
0.310494 0.520847 1.28871 
0.670167 -0.317625 -1.58686 
1.29208 -0.402162 -0.0847731 
1.3744 0.494575 -0.139311 
-1.05604 0.12953 0.960671 
0.247989 0.327559 0.138193 
ITEM: TIMESTEP
600
ITEM: NUMBER OF ATOMS
64
ITEM: BOX BOUNDS pp pp pp
0.0000000000000000e+00 8.4819999999999993e+00
0.0000000000000000e+00 8.4819999999999993e+00
0.0000000000000000e+00 8.4819999999999993e+00
ITEM: ATOMS fx fy fz 
-0.983533 -0.234908 -0.346656 
-0.589862 -1.18581 -0.666049 
-0.198447 0.952388 0.553473 
-0.0724884 1.06435 0.0582436 
-0.434006 1.0086 -0.0924159 
0.28422 -0.774916 -1.08753 
0.121165 0.123949 -0.335101 
-0.106937 -1.23919 -0.180171 
0.606533 -0.80462 0.462343 
-0.853056 -0.800942 1.13137 
-0.512396 0.828655 -0.0463917 
0.480956 -0.0275516 1.23175 
0.2796 -0.387318 0.916648 
0.411341 0.235219 -0.318388 
-0.0856716 -1.14301 -0.165101 
-0.307621 -0.407656 0.0487996 
-0.144774 -0.0704579 1.20242 
0.458042 -0.47167 -0.483801 
0.678634 -0.0095205 -0.746537 
0.463525 0.473285 0.454145 
0.137882 -0.161334 0.157557 
-0.175878 -0.00655338 -0.461669 
-0.185057 0.185788 -0.399008 
0.442094 1.09059 -0.519764 
0.633164 0.129529 0.444639 
0.679604 -0.156235 0.235396 
-0.235035 0.785695 1.22384 
0.294608 1.31585 -0.417311 
0.0572634 0.0766026 0.338377 
0.195494 1.00767 0.679006 
0.0375228 0.150535 0.463934 
0.778835 -0.615424 -0.156078 
1.32357 0.0139624 -0.143895 
0.918547 -0.63552 -0.521014 
-0.163435 0.692128 1.36532 
0.0047744 0.343939 0.478731 
1.06997 1.14683 0.0966034 
0.530939 0.446741 0.541353 
-0.12205 1.14727 -0.130013 
-0.177788 -0.759396 0.637094 
-0.742522 -0.0193598 -0.00135801 
0.951969 -1.0152 -0.410548 
0.0856703 0.5489 -1.30673 
0.628852 -0.278731 -1.67769 
0.194975 1.41386 -0.611607 
0.266612 -0.428195 0.95405 
-1.95748 0.862333 -0.415778 
0.11452 -0.456368 0.212054 
-0.3422 -0.875718 0.210193 
-0.866662 -0.579984 0.114594 
-0.214472 0.751468 -0.867211 
-0.515869 -0.749909 1.21771 
-0.508635 -0.119339 0.587587 
-0.474413 0.216827 -0.164471 
-0.168356 -1.1427 -0.726212 
-0.214591 -0.0258818 0.0711982 
-0.167813 -0.354081 -1.27024 
-0.204115 0.215435 -0.15063 
0.174084 0.408828 -0.348041 
-0.977175 -0.249663 -0.361671 
-0.15549 -0.247243 -0.54523 
0.00976793 -0.726004 0.597385 
0.330883 -0.3515 0.155016 
-0.787797 -0.125327 -0.766515 
ITEM: TIMESTEP
700
ITEM: NUMBER OF ATOMS
64
ITEM: BOX BOUNDS pp pp pp
0.0000000000000000e+00 8.4819999999999993e+00
0.0000000000000000e+00 8.4819999999999993e+00
0.0000000000000000e+00 8.4819999999999993e+00
ITEM: ATOMS fx fy fz 
-0.136293 -0.528789 -0.432834 
0.531844 -0.67859 -0.239419 
0.862 0.397391 0.334629 
0.60071 -0.427922 0.488976 
0.276455 1.1194 -0.506826 
-0.448817 1.02678 0.173224 
0.490724 -0.752341 0.692587 
0.276235 0.224794 0.165703 
1.07129 0.566288 1.11402 
0.386694 -1.25078 -0.323274 
0.82708 0.431847 0.325258 
1.10776 1.224 -0.105038 
0.428202 -0.357039 -0.309583 
-0.66147 -0.54208 0.873801 
0.59886 -0.0107476 0.188457 
0.971761 0.550271 0.207482 
-1.5907 0.263441 -0.523337 
-0.965861 0.0119711 0.163192 
-0.459418 0.730774 -0.376286 
-0.314352 0.484294 -0.853941 
0.382459 -0.249217 0.9685 
-0.284806 0.905567 -0.0584946 
-0.0210986 0.0907341 -0.64933 
0.302526 -0.97117 0.271766 
0.302052 -0.00362854 0.919179 
-1.48124 0.119989 -0.105154 
0.277001 0.0680806 -0.0178346 
0.108099 -0.337085 0.226728 
0.912649 0.230169 1.54341 
0.542837 -0.496658 -0.604354 
0.0619364 -0.0317894 0.575143 
-0.344769 0.23047 -0.475343 
-0.253424 0.166155 -0.065455 
-1.0074 -0.218618 -0.200391 
-0.183381 0.672361 -0.487967 
-0.525318 -0.301057 -0.0807668 
-0.692012 -0.0589885 -0.452957 
-0.433069 0.279709 -0.350674 
-0.297228 -0.526066 1.6498 
-0.39959 -1.35901 0.0519476 
-0.162964 -0.232873 -1.11257 
0.208996 -0.540609 1.26692 
-0.792784 0.644948 0.367401 
-1.72267 0.434219 1.29165 
-1.16396 -0.362903 -0.336151 
-0.395601 1.47517 -1.6384 
0.873819 -0.0738912 -1.53852 
-0.549324 -0.916323 -0.326463 
1.35326 0.656608 0.279932 
1.37032 -0.295626 0.509331 
0.0301342 0.329245 -0.339629 
0.27524 -0.105627 -0.376166 
-0.159471 0.816913 0.399632 
1.24944 -0.837075 0.410665 
0.0304664 -0.14277 -0.327183 
-0.0363999 0.57436 0.317197 
-1.12103 -0.704654 0.173668 
1.28751 -0.164935 -0.21491 
-0.56807 -0.539894 -0.900174 
0.740862 -0.306662 0.502777 
-0.731787 0.339156 -0.759838 
-0.637067 0.716934 0.306223 
-0.29975 -0.834175 -1.65167 
0.101894 -0.622463 -0.0182851 
ITEM: TIMESTEP
800
ITEM: NUMBER OF ATOMS
64
ITEM: BOX BOUNDS pp pp pp
0.0000000000000000e+00 8.4819999999999993e+00
0.0000000000000000e+00 8.4819999999999993e+00
0.0000000000000000e+00 8.4819999999999993e+00
ITEM: ATOMS fx fy fz 
-0.43505 0.7069 0.607904 
-0.918737 0.211788 0.508083 
-1.09861 -0.192958 -0.19501 
-0.826412 0.753505 -0.348217 
0.578317 -0.225977 0.343448 
-0.300966 0.149118 0.436833 
-0.817276 -0.181322 0.432583 
0.881834 1.32601 0.132593 
-0.608346 -0.0650188 -0.832862 
-1.45653 0.262117 -1.20075 
-0.108396 -0.63168 0.562688 
0.0425892 0.189702 -0.254329 
0.194795 1.08592 -1.08964 
0.451897 -0.243241 -0.274156 
-1.06359 1.31057 0.648019 
-0.410946 -0.415835 0.0449322 
0.818896 -0.328668 -0.00431064 
0.360227 0.75874 0.482722 
0.508243 -0.707578 0.457183 
0.0587911 -0.418024 -0.389433 
0.33674 0.3505 -1.13455 
-0.178987 -0.842647 0.785384 
0.754779 -0.457812 -0.358308 
0.102558 0.0317883 -0.995013 
-0.262746 -0.187661 0.352981 
0.22686 0.735696 -0.262798 
0.128791 0.225261 0.0234613 
0.692866 -0.288028 -0.477912 
-0.0630859 -0.0434954 -0.0643851 
-0.629356 0.0232137 -0.11424 
-0.902287 -0.0103392 -0.923862 
0.57039 -0.583588 0.212993 
-0.523407 -0.716161 0.211978 
0.751211 0.03053 0.396091 
0.26757 -0.199819 0.623823 
0.45372 -0.0275877 -0.316479 
-0.487588 -0.923332 -0.28938 
0.688202 0.415945 -0.207067 
0.112003 -0.00189847 -1.4844 
-0.225391 0.299347 -0.557726 
0.0432035 -0.158926 0.245791 
1.1431 0.879023 -0.87565 
0.244413 -0.362443 -0.667766 
1.27028 -0.258227 0.856989 
-0.307317 -1.76583 -0.573037 
0.563889 0.442962 -0.0283229 
-0.235421 -1.03818 1.3935 
0.368464 -0.405497 1.60328 
0.0530307 -0.415943 -0.104952 
-0.388284 0.959826 -0.146789 
0.278492 -1.15062 0.583766 
0.300726 0.300189 -0.198956 
-0.509559 0.385087 -0.318696 
-0.0649251 0.117153 1.22137 
-0.303575 0.103444 0.63617 
-0.281097 -1.06062 -0.566799 
0.559081 1.05705 0.448624 
-0.0311512 -0.505373 -0.110181 
-0.239722 0.212512 -0.669675 
-1.20612 0.37019 -0.220813 
-0.144105 0.537105 1.18572 
0.17318 0.400053 0.147249 
0.932691 0.020079 0.0882386 
0.117148 0.163003 0.582048 
ITEM: TIMESTEP
900
ITEM: NUMBER OF ATOMS
64
ITEM: BOX BOUNDS pp pp pp
0.0000000000000000e+00 8.4819999999999993e+00
0.0000000000000000e+00 8.4819999999999993e+00
0.0000000000000000e+00 8.4819999999999993e+00
ITEM: ATOMS fx fy fz 
1.06005 -0.739035 0.689181 
0.653362 0.915089 0.441539 
0.196275 -1.73536 0.396702 
0.374973 -0.796007 0.11711 
-0.61549 -0.925467 1.08763 
-0.0652188 0.254368 0.364458 
1.15245 0.253411 -0.70602 
-0.313939 0.470165 -0.523827 
-0.849004 0.736073 -0.711198 
1.05897 1.10218 -0.882596 
-0.141041 -0.288851 -1.00915 
-0.437612 -1.02732 -0.994652 
-0.840227 -0.216971 -0.984942 
0.07861 0.139607 0.0593788 
0.700448 0.0995722 -0.864503 
0.576839 -0.252307 0.110752 
0.162408 0.505584 -0.222098 
-0.767536 0.544487 0.831005 
-0.872071 0.0407688 -0.300242 
-0.477768 -0.229317 0.107409 
-0.528214 -0.840672 0.429206 
0.0272304 -0.44679 0.582345 
-0.99165 0.216632 0.895668 
0.243893 0.139903 0.143629 
-0.728803 -0.0545826 -1.37845 
-0.0321122 0.132216 0.320209 
-0.335685 -1.16155 -0.621351 
-0.195864 -0.0320056 0.327096 
-0.147802 0.273305 -0.92991 
-0.533742 -1.31279 0.566465 
1.97465 -0.299911 0.100855 
-0.895167 0.417582 -0.424657 
-0.155217 0.0120443 -0.446834 
0.0983863 1.2128 -0.588085 
0.407358 -0.69169 -1.13845 
0.171897 0.0724576 -0.540805 
0.944802 -0.722013 0.946332 
-0.114248 -0.0260092 0.93464 
-0.841625 -0.102299 -0.588752 
0.349981 0.740103 -0.204914 
0.617334 -0.30909 0.582048 
-1.17126 0.102021 -0.1514 
0.08517 -0.684178 0.892023 
-0.461151 0.468713 0.881285 
-0.19347 0.1367 1.17308 
0.354576 -0.0730041 0.498468 
0.589553 0.0382137 0.297218 
0.574912 1.20395 0.900739 
-1.29206 0.473357 -0.586177 
-0.301845 -0.0373378 0.304462 
0.146603 0.466046 0.319583 
-0.0314084 0.272021 -0.416493 
0.172635 -0.382075 -0.282422 
-0.218798 0.438801 -0.700784 
0.758503 0.679881 -0.650951 
0.00583853 -0.0281634 -0.539314 
0.548481 -0.809637 0.534501 
0.0761563 1.33389 0.170557 
0.702519 -0.586976 0.916143 
0.466933 0.386721 0.0991808 
-0.0403749 0.0699917 0.411375 
0.528946 -0.404329 0.140029 
-1.07817 0.893265 0.864391 
-0.192161 -0.026168 -1.04772 
ITEM: TIMESTEP
1000
ITEM: NUMBER OF ATOMS
64
ITEM: BOX BOUNDS pp pp pp
0.0000000000000000e+00 8.4819999999999993e+00
0.0000000000000000e+00 8.4819999999999993e+00
0.0000000000000000e+00 8.4819999999999993e+00
ITEM: ATOMS fx fy fz 
-0.888279 0.747994 0.287593 
-0.862404 0.572002 -0.346145 
-0.0641752 0.794572 -0.920656 
-0.308919 -0.549838 -0.108359 
-1.10088 -0.56146 0.264508 
0.678816 -1.03342 -0.163972 
-0.642318 -0.0366746 0.117655 
-0.453181 -1.38085 0.544953 
0.610728 -0.596282 0.457041 
-0.247748 0.711746 0.487808 
-0.0166363 -0.775022 0.1086 
-0.59729 -0.2642 0.322696 
0.145234 -0.156223 0.16079 
1.05723 -0.468055 -0.520615 
-0.944212 -0.958162 -0.145024 
-0.0230782 -0.373804 -0.807532 
-0.173038 -0.279576 0.934112 
1.41976 -0.771296 0.263237 
0.694842 -0.903555 0.867701 
0.569453 0.76837 0.707784 
-1.02245 0.798114 -0.0826089 
0.728832 -1.17291 0.131035 
1.01707 -0.334482 -0.289636 
-0.329184 0.390919 0.887906 
0.837996 0.957881 0.116598 
0.464259 -0.115296 0.227637 
0.140437 0.775239 0.812789 
0.2822 0.240764 0.116529 
-0.0211621 -0.870536 -0.817129 
-0.0110304 1.03801 0.529313 
-0.0216793 -0.0824452 0.0126499 
0.639747 0.0347261 0.58275 
0.301601 0.386215 0.321625 
-0.773736 -0.353984 0.168416 
-0.539091 -0.265535 -0.885698 
-0.342257 0.782757 0.251258 
0.505433 1.03272 0.263957 
-0.611368 -0.373273 -0.490625 
0.612216 0.132258 0.215585 
0.591572 0.813969 0.589294 
-0.811983 0.152364 0.432678 
0.467967 -0.241239 1.08087 
0.28384 0.223136 -0.49645 
-0.169968 -0.302975 -0.445874 
0.366936 1.43349 0.356209 
0.0879009 0.25391 -0.0962362 
-0.433817 1.14508 -0.154073 
-0.366377 0.0874102 -0.938445 
0.828705 -0.587823 -0.233619 
0.279596 -0.292735 -0.630168 
-0.246602 0.543336 -1.15205 
-0.018222 -0.0817667 -0.364473 
1.70149 0.233768 -0.16538 
-0.586529 -0.269724 -0.998651 
-1.34636 0.42747 0.191299 
0.464727 0.787844 0.0871531 
-0.629456 -0.770737 -0.571553 
-0.625662 0.180125 0.193252 
-0.12066 0.102882 -0.0829847 
-0.163176 -0.453195 -1.24386 
-0.2495 -0.677358 -0.143766 
0.0503408 0.669511 -0.575014 
-0.527193 -0.185191 0.416963 
0.460699 -0.67897 0.360353 
ITEM: TIMESTEP
1100
ITEM: NUMBER OF ATOMS
64
ITEM: BOX BOUNDS pp pp pp
0.0000000000000000e+00 8.4819999999999993e+00
0.0000000000000000e+00 8.4819999999999993e+00
0.0000000000000000e+00 8.4819999999999993e+00
ITEM: ATOMS fx fy fz 
-0.211226 -0.152325 -0.392332 
1.88704 -0.214327 -0.13853 
0.715772 0.119805 0.15535 
0.244768 -0.114492 0.459923 
-0.350172 0.990772 -0.766988 
0.301163 0.232701 -0.352019 
1.043 -1.25671 -0.139942 
-0.0107821 -1.07538 0.161721 
0.63266 0.673096 0.506564 
-0.468286 -0.258716 0.625755 
0.384433 0.92393 0.169557 
0.271502 1.07401 1.599 
-0.150442 -0.763951 1.21503 
-0.448813 -0.314264 0.898983 
0.488954 -1.89977 -0.617078 
0.0584417 -0.0659106 0.197627 
-0.679045 0.869236 -0.219537 
-0.717021 -0.568931 -0.630563 
0.220154 1.08555 -0.833096 
-0.692305 -0.472513 0.399089 
-0.11781 -0.280061 0.833846 
0.465865 1.48567 -0.605194 
-0.162342 0.111381 0.16378 
-0.33134 0.742421 0.69144 
0.202669 -0.574838 0.440587 
-1.31188 -1.04319 0.0631282 
-0.0606325 0.0580195 0.244446 
0.398633 0.329115 0.446686 
-0.216593 1.00088 1.40376 
0.287439 -0.32512 -0.44976 
0.288423 -0.154306 0.745394 
-1.07252 0.298031 0.380793 
1.03431 -0.21144 0.309194 
0.389363 -1.28519 0.0126917 
-0.370123 0.695651 1.07129 
0.620096 -0.890646 0.706736 
0.7631 1.72799 -0.516806 
-0.331674 1.48636 -0.54605 
-0.958661 1.09365 -0.589829 
0.288287 -0.741785 0.399962 
-0.248537 0.582605 -0.772228 
0.632479 0.0601996 -0.0789469 
-0.288462 0.2698 -1.44399 
0.559642 0.510916 -1.2873 
-0.0420581 0.720298 -0.117929 
-0.029886 -0.514627 0.484586 
-0.323062 -0.773643 0.129281 
0.576859 -1.25969 -1.36797 
-0.0984856 -1.08781 0.580224 
-1.14492 0.48422 -0.794174 
-0.539722 0.0893804 0.241393 
-0.182903 -0.11354 0.412262 
-0.480952 -0.942544 0.202482 
-0.709588 0.768032 0.0447844 
0.403019 -0.914279 -0.590594 
0.199719 -1.05801 0.533878 
-0.575586 1.09031 -0.231991 
0.670582 -1.51877 -1.07258 
0.0248354 1.42702 -0.700299 
-0.819066 -0.0756412 0.568826 
0.097124 -0.0100372 -1.0421 
-0.52386 -0.700414 0.224468 
0.748402 -0.0359368 -1.17961 
-0.229968 0.667752 -0.247073 
ITEM: TIMESTEP
1200
ITEM: NUMBER OF ATOMS
64
ITEM: BOX BOUNDS pp pp pp
0.0000000000000000e+00 8.4819999999999993e+00
0.0000000000000000e+00 8.4819999999999993e+00
0.0000000000000000e+00 8.4819999999999993e+00
ITEM: ATOMS fx fy fz 
0.326388 0.270923 -0.510354 
-0.823727 0.709558 -0.00912679 
-1.34356 0.140791 -0.204212 
-0.88261 0.0544189 0.416827 
0.529949 0.692565 0.59529 
-0.633821 -0.438775 0.237473 
-1.72202 -0.114394 0.255852 
0.177083 0.1736 -0.0462393 
-0.666022 0.166245 0.642411 
0.19877 0.305198 0.731502 
-0.0101905 0.0602642 0.718046 
0.184919 1.2428 0.480666 
-0.130298 1.26628 0.371254 
-0.00917016 -1.72606 -0.0491764 
-0.957371 0.597477 0.225694 
-0.196123 0.353419 0.262242 
0.693615 -1.07512 0.316138 
1.59997 -0.708104 -0.72585 
-1.00729 -0.0703947 -0.287195 
0.156195 -0.231604 -0.393312 
0.801432 0.757073 -0.460042 
-0.267944 0.131475 -0.54419 
0.411627 0.295488 -1.11648 
-0.206832 -0.443201 -0.55563 
-0.0147205 0.238103 1.29458 
0.203455 -0.0947244 -0.825707 
0.741427 0.750126 0.0724862 
0.0156449 -0.670529 -0.490677 
0.614717 -0.243462 0.470991 
0.0876098 1.30437 -0.197348 
-0.682145 0.492068 -0.478322 
1.12156 0.237561 -0.247014 
-0.42017 0.189221 -1.10162 
-0.771189 0.363362 -0.160617 
1.09832 -0.227196 -0.561681 
-0.163706 -0.0254954 0.205101 
-1.22574 -0.418568 0.813579 
0.286026 -0.267664 -0.170447 
0.452185 -1.26398 0.548457 
-0.518097 -0.478008 -0.430801 
0.808154 -0.128132 -0.215816 
-0.588332 -0.829158 -0.329306 
-0.147503 -0.721164 1.26231 
-0.895262 -0.552249 -1.01114 
-0.257749 -0.593972 -0.542138 
-0.0724873 0.855897 0.143834 
0.8363 0.410277 -1.53444 
-0.549023 -0.468174 -0.743097 
-0.0301666 1.78302 0.751467 
0.33559 -0.472282 0.972783 
0.796627 0.956768 0.241983 
0.309095 0.188853 0.349173 
-0.420918 0.240674 0.661233 
0.915818 -0.565664 0.439713 
0.476677 -0.488303 -0.310646 
-0.106445 -0.118725 0.416074 
0.295643 -0.275102 -0.203594 
0.112713 0.355845 1.11536 
-0.617814 -0.33587 -1.04542 
1.01478 0.53245 0.991869 
0.539484 -0.681273 -0.017774 
0.296611 -0.0721534 -0.415718 
-0.268582 -0.836479 -0.303461 
0.168638 -0.480181 0.234201 
ITEM: TIMESTEP
1300
ITEM: NUMBER OF ATOMS
64
ITEM: BOX BOUNDS pp pp pp
0.0000000000000000e+00 8.4819999999999993e+00
0.0000000000000000e+00 8.4819999999999993e+00
0.0000000000000000e+00 8.4819999999999993e+00
ITEM: ATOMS fx fy fz 
0.65855 -0.244062 0.856785 
0.889808 0.198152 0.475064 
-0.0855573 -0.377664 0.229452 
0.217864 0.325694 -0.474821 
0.67251 -0.358594 -0.158136 
-0.139119 1.39281 0.08633 
0.706208 -0.501436 -1.2412 
-0.280688 1.27182 0.359904 
-0.0725458 -0.0602823 -0.195539 
0.655317 0.450825 -0.569509 
0.270389 0.340044 -0.815581 
0.927592 -0.998116 -0.789079 
0.0222486 -0.151237 -0.104092 
-1.04447 0.856843 0.0185881 
1.8405 1.25384 0.629323 
-0.295671 -0.288605 0.404686 
0.578771 -0.360437 -0.797307 
-1.24355 0.65557 0.268661 
-0.0455264 0.646001 -0.152915 
-0.168083 -0.00442813 -0.612929 
-0.0311931 -0.441165 0.206868 
-0.645651 0.923037 -0.123647 
-0.920936 0.46944 0.393253 
0.199299 -0.37426 -0.286635 
-0.180206 -0.806337 -0.658356 
0.609016 -0.053896 -0.218025 
-0.252471 -1.03606 -0.81294 
0.0362184 0.153857 -0.451162 
0.307208 0.611929 0.0470931 
-0.289065 -0.0811182 -0.386636 
-0.44589 -0.182408 0.178147 
-0.625216 -0.565061 -1.22265 
-0.472889 0.530462 1.36659 
0.0805703 0.171394 -0.504401 
-0.568936 -0.353357 0.238795 
0.252814 0.163962 -0.636995 
-0.386722 -1.9733 -0.633989 
0.896393 -0.348149 0.589771 
0.591061 -0.374227 -0.645589 
0.0776996 0.844266 0.0848239 
0.430854 -0.204937 0.231492 
-0.768603 0.560857 -0.106185 
-0.00430164 -0.629637 -0.501325 
0.595146 -0.291011 0.828196 
0.395624 -0.811221 0.506604 
0.474218 0.0011751 -0.869525 
0.256751 -0.809126 1.41047 
-0.852891 0.535809 -0.084831 
-0.61499 -0.691836 -0.593362 
0.246126 0.379085 0.600093 
0.480493 -1.01007 -0.246051 
-0.287457 0.608034 0.34523 
-0.633923 0.0902842 0.464871 
-0.00445658 -0.337808 0.26539 
-0.312126 -0.469144 0.731653 
-0.672208 0.649663 -0.852971 
0.625588 1.01112 0.120243 
-0.440419 0.281843 0.406425 
-0.10808 -0.186087 1.1564 
-0.328425 -0.0403997 -0.218624 
-0.736543 0.792327 0.166066 
-0.107904 -0.137873 0.89348 
0.41991 -0.1612 0.332155 
-0.348026 -0.455606 1.0721 
ITEM: TIMESTEP
1400
ITEM: NUMBER OF ATOMS
64
ITEM: BOX BOUNDS pp pp pp
0.0000000000000000e+00 8.4819999999999993e+00
0.0000000000000000e+00 8.4819999999999993e+00
0.0000000000000000e+00 8.4819999999999993e+00
ITEM: ATOMS fx fy fz 
0.249044 -0.162689 -0.251375 
-0.942367 -0.224013 -0.131965 
0.71491 0.600581 -0.885055 
-0.271885 -0.0424741 0.385005 
-0.751095 -0.488587 0.601655 
0.427881 -0.986429 0.399602 
0.142066 2.31578 0.749204 
-0.0603516 -0.0538563 -0.382432 
0.655894 -0.228302 -0.684278 