LAMMPS (17 Nov 2016)
newton on
boundary	 	 p p p
units	 	 	 metal
atom_style	 	 atomic

read_data lattice.xyz
  orthogonal box = (0 0 0) to (8.482 8.482 8.482)
  1 by 1 by 1 MPI processor grid
  reading atoms ...
  64 atoms

neighbor    0.01 bin
neigh_modify once yes
pair_style morse 2.5
#param1: 1.694400
#param2: 1.285100
pair_coeff 1 1 1 1 1
pair_coeff 2 2 1 1 1
pair_coeff 1 2 1.694400 1.285100 2.120500

# Initialize velocity, thermo settings, timestep and ensemble
velocity	 all create 1000 20101 rot yes mom yes
thermo  	 100
thermo_style custom step pe temp #ke press vol temp
fix 1 all nve
timestep  0.0005

# Run MD
dump 1 all xyz 100 dump.xyz
dump 2 all custom 100 dump.forces fx fy fz
#dump 3 all custom 1 dump.coords type xs ys zs
#dump_modify 3 format float %20.15g scale yes
dump_modify 2 sort id
run 1000000
Neighbor list info ...
  1 neighbor list requests
  update every 1 steps, delay 10 steps, check yes
  max neighbors/atom: 2000, page size: 100000
  master list distance cutoff = 2.51
  ghost atom cutoff = 2.51
  binsize = 1.255 -> bins = 7 7 7
Memory usage per processor = 4.62464 Mbytes
Step PotEng Temp 
       0    -325.3248         1000 
     100   -322.71384    679.53498 
     200   -320.45948    402.72121 
     300   -321.35454    512.64047 
     400   -322.36656    636.90851 
     500   -322.03377    596.01997 
     600   -320.97486    466.01307 
     700   -321.49206     529.5315 
     800    -321.9601     586.9765 
     900   -321.41031    519.47309 
    1000   -321.78846    565.90029 
    1100   -320.87753    454.09428 
    1200   -320.73715    436.83594 
    1300   -321.70861    556.09663 
    1400   -321.97933    589.34571 
    1500   -321.43305    522.26391 
    1600   -321.44836    524.14373 
    1700   -321.14439    486.85692 
    1800    -321.5803    540.35179 
    1900   -321.75577    561.89531 
    2000   -321.09976     481.3725 
    2100   -321.16098    488.88921 
    2200   -321.39899    518.07963 
    2300   -321.15505    488.14158 
    2400    -321.5309    534.28245 
    2500   -321.34875    511.93412 
    2600   -321.39093    517.09651 
    2700   -321.33724    510.51178 
    2800   -321.62898    546.32458 
    2900   -321.51028    531.77048 
    3000    -321.7593     562.3037 
    3100   -320.94993    462.95087 
    3200   -321.45067    524.44779 
    3300   -322.36339    636.47212 
    3400   -320.68869    430.88366 
    3500   -321.32584    509.09685 
    3600   -321.51081    531.82989 
    3700   -321.18286    491.56722 
    3800   -320.94245    462.04384 
    3900   -321.84571    572.93706 
    4000   -320.04502     528.7709 
    4100   -320.89701    456.30007 
    4200   -321.54059    535.30421 
    4300   -321.62881    546.15004 
    4400   -321.64802    548.48201 
    4500   -320.91953    459.06143 
    4600   -321.94382    584.80877 
    4700   -321.49985    530.31973 
    4800    -321.1872    491.92167 
    4900   -321.24225    498.66418 
    5000   -321.68894    553.50752 
    5100   -321.54734    536.13826 
    5200   -321.66401    550.45491 
    5300    -321.3846    515.70849 
    5400   -321.21818    495.27176 
    5500   -320.63604    423.82144 
    5600   -321.15982    488.10992 
    5700   -321.41656    519.64705 
    5800   -320.85419     450.6154 
    5900   -320.96614     464.3379 
    6000   -321.21307    494.67475 
    6100   -321.47584    526.93196 
    6200    -321.0644    476.40675 
    6300   -320.89722    455.89154 
    6400   -321.47988    527.42518 
    6500   -321.76995    563.03275 
    6600   -319.86017    505.50678 
    6700   -320.99213    467.50393 
    6800   -321.60362    542.55219 
    6900   -321.74613    560.05655 
    7000   -321.45255    524.01715 
    7100   -321.62405    545.06465 
    7200   -321.41876    520.04311 
    7300   -322.01933      593.773 
    7400   -321.51611    531.99659 
    7500   -321.27495    502.40162 
    7600   -321.57608    539.36538 
    7700   -321.92588    582.30401 
    7800   -321.65078     548.5349 
    7900   -322.05047     597.5966 
    8000   -321.34214    510.65122 
    8100   -321.56384    537.82929 
    8200   -321.38262     515.6121 
    8300   -321.74842    560.51671 
    8400   -321.30684    506.30354 
    8500   -320.79556    443.53344 
    8600   -321.71574    556.50669 
    8700    -321.4482    523.67833 
    8800   -319.86959    506.94942 
    8900   -321.39319    516.99572 
    9000   -321.07624    478.10011 
    9100   -321.62905    545.95109 
    9200    -321.3264     508.8191 
    9300   -321.50894    531.21659 
    9400   -321.10301    481.54845 
    9500   -321.07558    478.18661 
    9600   -321.89402    578.66083 
    9700   -321.28405    503.79829 
    9800   -321.02396    471.85277 
    9900   -321.19291    492.59419 
   10000   -320.96401    464.50723 
   10100   -321.38669    516.37783 
   10200   -320.97045    465.28019 
   10300   -321.37438    514.86951 
   10400   -321.08874    479.81654 
   10500   -321.36913    514.24899 
   10600   -321.63118    546.42662 
   10700    -321.7165    556.89447 
   10800     -321.327    509.07651 
   10900   -319.59705    473.78795 
   11000   -321.46335    525.59585 
   11100   -321.38845    516.40746 
   11200   -320.55281    590.64471 
   11300   -319.80433    498.76688 
   11400   -321.06544    476.78121 
   11500   -321.76616    562.88882 
   11600   -321.10731    482.02529 
   11700   -319.47225    458.30868 
   11800   -321.25772       500.87 
   11900   -321.62783    546.31413 
   12000   -321.20543    494.44601 
   12100   -320.69336    431.85676 
   12200   -321.88449    578.07736 
   12300    -321.7756     564.7253 
   12400   -321.66252     550.8377 
   12500   -320.84523    450.50693 
   12600   -321.63783    547.80151 
   12700    -321.3948    517.99474 
   12800   -321.58353    541.13891 
   12900   -321.16307    489.52421 
   13000   -321.86643    575.88135 
   13100   -321.85881    574.93536 
   13200   -321.43027    522.30208 
   13300   -319.54531    468.13423 
   13400   -321.39338    517.93992 
   13500   -320.95802    464.49659 
   13600   -321.24286    499.45439 
   13700   -318.49658    516.54241 
   13800   -321.28585     505.0597 
   13900   -321.18272    492.37782 
   14000   -320.93013    461.38427 
   14100   -321.32117    509.38969 
   14200   -321.62375    546.53751 
   14300   -321.13406     486.4235 
   14400   -321.59004    542.37663 
   14500   -321.84797    574.06424 
   14600   -322.12962    608.63829 
   14700   -321.74477    561.39583 
   14800   -321.60884    544.69134 
   14900   -321.94928    586.49744 
   15000   -321.47402    528.16442 
   15100   -321.67112    552.33023 
   15200   -321.33915     511.6171 
   15300   -322.04057    597.70068 
   15400   -321.19213     493.5426 
   15500   -321.35701    513.77477 
   15600   -321.86962    576.71276 
   15700   -321.38513    517.24274 
   15800   -321.26251    502.16966 
   15900   -321.63948    548.26609 
   16000   -321.49932    531.06688 
   16100   -321.37219    515.43357 
   16200   -320.97927    467.19979 
   16300   -321.61701     545.6419 
   16400   -321.50908    532.39931 
   16500    -321.2868    505.11696 
   16600   -321.58061    541.19658 
   16700   -321.25349    501.04099 
   16800   -319.72611    490.78305 
   16900    -321.3457    512.33587 
   17000   -319.96427    519.96068 
   17100   -319.52249    465.71213 
   17200    -319.5006    463.03339 
   17300   -321.85983    575.79125 
   17400   -321.83583    572.86137 
   17500   -321.02648    473.49206 
   17600   -321.09952    482.44709 
   17700    -321.1485    488.47394 
   17800    -321.2175    496.93011 
   17900   -321.05309    476.75248 
   18000   -321.09003    481.29715 
   18100   -320.98583    468.51097 
   18200    -321.0251    473.30918 
   18300   -321.63488    548.16529 
   18400   -321.63814    548.03499 
   18500   -320.92412    460.36979 
   18600   -321.38781    517.29288 
   18700    -321.4432    524.12161 
   18800   -321.69562    555.09797 
   18900   -320.99956     469.6361 
   19000   -321.55519     537.8432 
   19100   -321.52225    533.81882 
   19200   -322.08168    602.48233 
   19300   -321.29664    506.12387 
   19400   -321.32304    509.35462 
   19500   -321.36263    514.21972 
   19600   -321.89993    580.17025 
   19700   -321.94048    585.15352 
   19800   -321.28211    504.32573 
   19900   -321.65177    549.69113 
   20000   -322.14951    610.81342 
   20100   -321.98335    590.42256 
   20200   -321.50816    532.07495 
   20300    -321.1389     486.7491 
   20400    -321.7267    558.90935 
   20500   -321.31105    507.88974 
   20600   -321.16675    490.16725 
   20700   -321.49606    530.57976 
   20800   -319.58601    473.46594 
   20900   -321.52349    534.19701 
   21000   -322.04336    598.02319 
   21100   -321.73211    559.82197 
   21200   -321.34236    511.95765 
   21300   -321.17554    491.50083 
   21400   -321.53016    535.02306 
   21500   -319.42984    454.30016 
   21600   -320.08763    535.03484 
   21700   -321.82435    571.28329 
   21800   -321.26505    502.62973 
   21900   -321.80021    568.30998 
   22000   -321.33273    510.93768 
   22100   -319.57645    472.63088 
   22200   -321.12271    485.27412 
   22300   -321.60323     544.2725 
   22400   -321.27309    503.74911 
   22500   -321.05693    477.19587 
   22600   -321.36517    515.05805 
   22700   -321.63702     548.4177 
   22800   -321.37911    516.74991 
   22900    -321.0755    479.48568 
   23000   -321.66486    551.82688 
   23100   -319.63665    479.92702 
   23200   -321.60297    544.31538 
   23300   -321.12011    485.03886 
   23400    -321.2796    504.61067 
   23500   -321.37111    515.55201 
   23600   -321.87073     576.8746 
   23700   -321.94949    586.52028 
   23800   -320.90731    458.62366 
   23900   -319.77442    496.41018 
   24000   -321.43998     523.7044 
   24100   -321.46077    526.25463 
   24200   -319.38778    448.82419 
   24300   -321.83853    572.62123 
   24400   -321.29359    505.76516 
   24500   -321.73839    560.33684 
   24600   -321.95925    587.45708 
   24700   -321.12595     485.1693 
   24800   -320.40239    396.33434 
   24900   -321.61284    544.91971 
   25000    -321.6003    543.40712 
   25100   -321.42102     521.3972 
   25200    -321.4451    524.34224 
   25300   -322.05207    598.86994 
   25400   -321.63634    547.83046 
   25500   -321.60841     544.3801 
   25600   -321.72231    558.38049 
   25700   -321.42661    522.08048 
   25800   -320.85915    452.40283 
   25900   -321.85871    575.12838 
   26000   -321.74816    561.55868 
   26100   -321.64412      548.766 
   26200    -321.5632    538.83483 
   26300   -321.01325    471.32724 
   26400   -321.46803    527.15631 
   26500   -322.30065    629.37895 
   26600   -319.92251    514.21502 
   26700   -320.72449    435.65472 
   26800   -321.71263    556.96927 
   26900   -321.78947    566.41452 
   27000   -320.82401    447.88231 
   27100   -321.50731    531.77004 
   27200   -321.71827    557.66241 
   27300   -320.07423    532.76729 
   27400    -320.0776    533.19758 
   27500   -321.50331    531.34691 
   27600   -319.81341    500.91011 
   27700   -319.96311    519.29916 
   27800   -321.83144     571.5006 
   27900    -321.7336    559.47487 
   28000   -320.99892    469.26991 
   28100   -321.08079    479.33708 
   28200    -321.8806    577.51556 
   28300   -321.73081    559.11968 
   28400   -321.02565    472.55954 
   28500   -321.39883    518.36676 
   28600   -322.04312    597.21551 
   28700   -321.41654    520.31083 
   28800   -321.48993    529.30579 
   28900   -319.94367    516.53428 
   29000   -321.72577    558.26678 
   29100   -321.21114    495.09969 
   29200   -321.82255    570.15203 
   29300   -321.23535    498.08643 
   29400   -321.27855    503.37525 
   29500   -321.29581    505.49616 
   29600   -321.77297    564.06433 
   29700   -319.88021    508.78537 
   29800   -319.69221    485.68677 
   29900   -321.15614    488.76999 
   30000   -321.84653    573.52204 
   30100   -321.46001    526.39358 
   30200   -321.14022      487.131 
   30300   -320.76152    440.37614 
   30400   -321.23161    498.09226 
   30500   -321.50501    531.66371 
   30600   -321.85598    574.73306 
   30700   -321.51367    532.70775 
   30800   -319.91443    513.51407 
   30900   -321.24957    500.35177 
   31000   -321.28739    505.30104 
   31100   -321.53896    536.17686 
   31200   -321.51007    532.64776 
   31300   -320.95455    464.58384 
   31400   -321.14942    488.48861 
   31500   -321.67393    552.88993 
   31600   -321.72781    559.50797 
   31700   -321.28618    505.28486 
   31800   -321.15241     488.8644 
   31900   -321.31723    509.09859 
   32000   -321.21895    497.01545 
   32100    -321.3065    507.77617 
   32200   -321.03721    474.72944 
   32300   -321.01018    471.40399 
   32400   -321.42676     522.5367 
   32500   -321.53153    535.40785 
   32600   -321.44443    524.71704 
   32700   -321.68292     553.9771 
   32800   -321.70381    556.55493 
   32900   -321.50534    532.19978 
   33000   -321.33341    511.07741 
   33100   -319.64506    480.99555 
   33200   -321.81144    569.90357 
   33300    -321.8955    580.23916 
   33400   -321.74418    561.65494 
   33500    -321.6175     546.1135 
   33600   -321.56068    539.14804 
   33700   -321.77867    565.88057 
   33800   -321.38011    516.94764 
   33900   -321.67634    553.33154 
   34000   -321.87941     578.2556 
   34100   -321.33098    510.92203 
   34200   -320.97839    467.65421 
   34300   -321.86305    576.24986 
   34400   -320.33711    565.82415 
   34500    -321.2817    504.68325 
   34600   -321.32907    510.50039 
   34700   -320.00649    525.19349 
   34800   -321.28001    504.44279 
   34900   -322.37314    638.62446 
   35000   -321.91442    582.32728 
   35100   -321.19025    493.42615 
   35200   -321.68004     553.5355 
   35300   -321.96538    588.56725 
   35400   -321.24281     499.8809 
   35500   -319.59997    475.27734 
   35600   -321.73305    560.16023 
   35700      -321.41    520.52794 
   35800    -319.9501    518.23551 
   35900   -321.16526    490.17292 
   36000   -321.47768    528.53957 
   36100   -322.34939    635.52772 
   36200   -322.01732    594.77081 
   36300   -321.66474    551.49107 
   36400   -321.48476    529.51985 
   36500   -321.22788    497.98575 
   36600   -321.28599    505.11943 
   36700   -319.95531    518.62419 
   36800   -321.46873     527.5679 
   36900   -321.14088    487.30572 
   37000   -321.40649    519.90828 
   37100    -321.4966    530.96442 
   37200   -321.47656    528.49843 
   37300   -319.74457    493.15933 
   37400   -320.96629    466.14394 
   37500    -321.8205    571.00753 
   37600    -320.0206    527.07656 
   37700   -321.27038    503.44502 
   37800   -321.02598    473.45766 
   37900   -321.46697    527.60941 
   38000   -321.58248    541.78217 
   38100   -321.24672    500.55761 
   38200   -321.26107    502.32548 
   38300   -321.53886    536.41498 
   38400   -321.13645    487.01796 
   38500   -320.15757    543.77234 
   38600   -321.68176    553.70335 
   38700   -321.79408    567.46865 
   38800   -321.25757    501.60336 
   38900   -321.54094    536.40085 
   39000   -321.25138    500.86576 
   39100   -320.98546     468.2149 
   39200   -321.25942    501.83332 
   39300    -321.4303    522.80756 
   39400   -321.28641    505.14936 
   39500   -321.23847    499.26516 
   39600   -321.20971    495.73509 
   39700   -320.75065    439.39456 
   39800   -321.20403    495.04056 
   39900   -321.40777    520.05573 
   40000   -321.38406    517.14532 
   40100   -321.64979    549.76001 
   40200   -321.28328    504.76469 
   40300   -321.29023    505.61629 
   40400   -321.05558    476.81239 
   40500   -320.97559    466.99459 
   40600   -321.28269    504.68329 
   40700   -320.89578    457.19236 
   40800   -320.91473    459.52151 
   40900   -321.14373    487.62573 
   41000   -320.71656    435.20057 
   41100   -321.10451    482.80185 
   41200   -320.66786    429.19872 
   41300   -321.36358    514.60885 
   41400   -321.11876    484.58063 
   41500   -320.63444    425.12789 
   41600   -321.22476    497.56302 
   41700   -321.33537    511.16703 
   41800   -321.82166    570.85385 
   41900   -321.06921     478.4875 
   42000   -320.85625    452.32164 
   42100   -321.15819    489.41253 
   42200   -321.59403    542.91381 
   42300   -321.73686    560.43594 
   42400   -321.53114    535.17682 
   42500   -321.01889    472.30605 
   42600   -321.46016    526.47487 
   42700   -321.26944    503.04988 
   42800   -321.00187    470.20392 
   42900   -321.65054    549.84587 
   43000   -322.07275    601.67342 
   43100   -320.87769    454.97605 
   43200   -320.83766    450.03752 
   43300   -321.52158    534.01402 
   43400    -321.7866    566.55994 
   43500   -321.57353    540.38876 
   43600   -320.84494    450.93201 
   43700   -321.10504    482.88096 
   43800   -321.71298    557.50961 
   43900   -321.86312    575.95392 
   44000   -321.30969    508.00071 
   44100   -321.36914    515.29425 
   44200   -321.37485    516.00541 
   44300   -321.02841    473.49405 
   44400   -321.56882    539.80745 
   44500   -321.37778    516.38028 
   44600   -321.43781     523.7555 
   44700   -321.66161    551.20426 
   44800   -317.88689    441.99724 
   44900   -321.60187    544.23449 
   45000   -321.95891     588.0716 
   45100   -321.62242    546.64965 
   45200   -321.25897    502.02482 
   45300    -321.2486    501.02265 
   45400   -321.58179    541.97253 
   45500   -321.21085     496.4417 
   45600   -320.86087    453.47715 
   45700   -319.44373    456.70019 
   45800   -319.46541    459.34836 
   45900    -321.5875    542.95833 
   46000   -321.66655    552.68081 
   46100   -321.04471    476.34323 
   46200   -321.07549    480.10299 
   46300   -320.97828    468.18508 
   46400   -321.25924    502.67293 
   46500   -319.88797    511.67029 
   46600   -321.22837    499.39999 
   46700    -321.4526    526.92942 
   46800   -321.47718    529.95299 
   46900   -320.71535    436.41885 
   47000   -320.58155    419.98674 
   47100   -321.28748      506.657 
   47200   -321.15369    490.24346 
   47300   -321.09269    482.73764 
   47400   -319.50069    464.42664 
   47500   -321.41486    522.07159 
   47600   -321.13925    488.23407 
   47700   -321.18236    493.52861 
   47800   -321.29728    507.63403 
   47900   -321.44837    526.18054 
   48000   -321.17065    492.08848 
   48100   -321.46923    528.73682 
   48200   -321.38307    518.17051 
   48300   -321.73348    561.19745 
   48400   -321.66921    553.29592 
   48500   -320.88504    457.01925 
   48600   -321.50888     533.5934 
   48700   -321.82719    572.69007 
   48800   -322.15119    612.46433 
   48900   -321.80349    569.76477 
   49000   -321.11322    485.03662 
   49100   -320.05859     532.6501 
   49200    -319.7253    491.88021 
   49300   -321.07924    481.55673 
   49400   -321.65812    552.63082 
   49500   -321.54289     538.4985 
   49600   -321.35041    514.83888 
   49700   -320.74898    441.02485 
   49800   -321.28424    506.73904 
   49900   -321.67796    555.06224 
   50000   -321.31306    510.25153 
   50100   -321.55905    540.44541 
   50200   -321.57586    542.53356 
   50300   -321.57796    542.78495 
   50400   -321.44725    526.72296 
   50500   -320.82754     450.6718 
   50600   -321.39865    520.77779 
   50700   -321.27513    505.61495 
   50800   -320.99287    470.95712 
   50900   -321.49297    532.35388 
   51000   -321.43393    525.12079 
   51100   -321.31957    511.06346 
   51200   -320.89629    459.10663 
   51300   -321.74978    563.88312 
   51400    -322.3355    635.77392 
   51500   -321.47041    529.59005 
   51600   -321.14488    489.61051 
   51700   -321.36167    516.24163 
   51800   -322.11619    608.86939 
   51900   -321.57672    542.64925 
   52000   -321.15427    490.76418 
   52100    -321.6351    549.79955 
   52200   -321.08448    482.23191 
   52300    -321.8986    582.13816 
   52400   -321.38972    519.67958 
   52500   -321.83173    573.94374 
   52600   -321.82674    573.31807 
   52700    -320.7851    445.44893 
   52800   -321.43616    525.37547 
   52900   -321.61165    546.95128 
   53000   -321.70644    558.57591 
   53100   -321.21285    497.95619 
   53200   -321.46483    528.88962 
   53300    -321.4718    529.76639 
   53400   -321.39052    519.76774 
   53500   -320.98706    470.24425 
   53600   -321.57561    542.48844 
   53700   -321.57405    542.31773 
   53800   -321.53093    537.01326 
   53900   -320.95568    466.39115 
   54000   -321.68608    556.04181 
   54100   -321.46552    528.98198 
   54200   -321.14739    489.93061 
   54300     -319.995     525.4048 
   54400   -321.08507    482.12717 
   54500   -321.78585    568.13792 
   54600   -321.64265    550.56779 
   54700   -321.25127    502.52785 
   54800   -321.47793    530.33922 
   54900    -321.3986    520.59591 
   55000   -321.20558    496.91678 
   55100   -321.75749    564.66601 
   55200   -321.69783    557.33227 
   55300   -321.35813    515.63399 
   55400   -321.59979     545.2982 
   55500   -321.37501    517.70884 
   55600    -321.2761     505.5646 
   55700   -321.60657    546.10851 
   55800   -321.17818    493.54637 
   55900   -321.12609    487.15225 
   56000   -321.68657    555.94616 
   56100   -321.29957     508.4581 
   56200    -321.2464    501.92502 
   56300   -321.25127    502.51012 
   56400   -319.63233    481.14253 
   56500   -320.96647    468.21896 
   56600   -319.64468    482.96673 
   56700   -320.96266    467.73511 
   56800   -321.24761    502.72712 
   56900   -321.46809     529.7959 
   57000   -320.99819    472.12373 
   57100   -321.72073    560.77495 
   57200   -321.53428    537.90892 
   57300   -321.12372    487.50427 
   57400   -321.60227    546.22899 
   57500   -322.11079    608.67005 
   57600   -322.24633    625.31176 
   57700   -321.43918    526.21465 
   57800   -321.15653    491.51254 
   57900   -321.77872    567.88567 
   58000   -321.13251    488.58051 
   58100   -321.26069     504.3063 
   58200   -321.02272    475.10065 
   58300   -321.38564    519.63222 
   58400   -321.51211    535.14951 
   58500   -321.44895    527.42301 
   58600   -322.09275    606.44063 
   58700   -321.45957    528.70323 
   58800    -321.2262    500.06819 
   58900     -321.747     563.9936 
   59000   -321.72768    561.63363 
   59100   -319.84562    507.35663 
   59200   -319.63128    481.04757 
   59300    -321.4631    528.77166 
   59400   -321.61788    547.75217 
   59500   -320.82377    450.27449 
   59600   -321.32182    511.41158 
   59700    -321.3947    520.38143 
   59800   -320.10627    538.85809 
   59900   -320.58848     420.9176 
   60000   -320.92429    462.13513 
   60100   -321.31707    510.35975 
   60200   -321.34077    513.27222 
   60300   -321.79506    569.01948 
   60400   -321.30985    509.46031 
   60500   -321.72103    559.93934 
   60600   -321.29618    507.77719 
   60700   -321.68948    556.03245 
   60800   -321.14819    489.59286 
   60900   -320.97008    467.72594 
   61000   -321.10906    484.78453 
   61100   -321.40391    520.98111 
   61200   -321.14173      488.801 
   61300   -320.74745    440.40026 
   61400   -321.10291    484.04582 
   61500   -321.28953     506.9461 
   61600    -321.0929    482.78901 
   61700   -320.79572    446.32209 
   61800   -321.66625    553.19822 
   61900   -322.13609    610.86281 
   62000   -321.50279    533.13336 
   62100   -321.02188    474.10296 
   62200   -321.85147    575.93021 
   62300   -321.73674    561.85999 
   62400   -321.56622    540.92113 
   62500   -320.90255    459.44582 
   62600   -319.25408    434.23936 
   62700   -321.57196    541.62811 
   62800   -320.28484    560.65502 
   62900   -321.01388    472.84101 
   63000   -321.31672    509.99374 
   63100   -320.99493    470.52015 
   63200   -321.64849    550.75186 
   63300   -321.42008    522.70039 
   63400   -321.71861    559.33419 
   63500   -321.77738    566.56601 
   63600   -321.24277    500.94104 
   63700   -321.22286    498.47608 
   63800   -320.78473    444.71062 
   63900   -321.39263    519.34118 
   64000   -321.73284    561.08709 
   64100   -320.54848    415.71774 
   64200   -321.80789    570.29848 
   64300   -321.76746     565.3478 
   64400   -321.59719      544.438 
   64500    -321.0615    478.56472 
   64600   -321.21546    497.45886 
   64700   -321.33917    512.64602 
   64800   -321.41657    522.16078 
   64900    -321.5301    536.07977 
   65000   -320.97182    467.55443 
   65100   -321.27333    504.55234 
   65200   -321.07182    479.90335 
   65300   -319.67634    485.76373 
   65400   -321.43649     524.7822 
   65500   -321.37306    517.12832 
   65600   -321.84873    575.52295 
   65700   -321.65095    551.25541 
   65800   -321.43922    525.26724 
   65900   -321.76609    565.37589 
   66000   -321.06529     479.3476 
   66100   -321.31086    509.47817 
   66200   -321.15913    490.87076 
   66300   -321.33798    512.83041 
   66400   -321.32377    511.08338 
   66500   -321.35566    515.00744 
   66600   -321.11843    485.87899 
   66700   -320.49961    409.91269 
   66800   -321.32874    511.67475 
   66900   -321.06587    479.42886 
   67000   -321.09512    483.01198 
   67100   -320.75214    440.91383 
   67200   -321.21298    497.48302 
   67300   -321.63553    549.36144 
   67400   -321.54823    538.71798 
   67500   -321.09369    482.92533 
   67600   -321.23728    500.53475 
   67700   -321.15709    490.70034 
   67800   -321.56931    541.31239 
   67900   -319.83845    505.88514 
   68000   -321.10128    483.81665 
   68100   -320.92508    462.20043 
   68200   -321.44544    526.08279 
   68300   -321.59235    544.11329 
   68400   -321.36513    516.21855 
   68500   -321.51803    534.97283 
   68600   -321.42217    523.21597 
   68700   -321.60858    546.11109 
   68800   -322.08703    604.83689 
   68900   -321.22463    498.97178 
   69000   -319.61601    478.45358 
   69100   -319.73063    492.79544 
   69200   -321.36462    516.25805 
   69300   -321.59933    545.07409 
   69400   -321.80688    570.54668 
   69500   -321.31872    510.61123 
   69600   -321.20439    496.57966 
   69700   -321.76043    564.84458 
   69800   -321.45541    527.41422 
   69900    -321.1597    491.10258 
   70000   -321.42327    523.43636 
   70100   -321.53655    537.35042 
   70200   -321.41689    522.67296 
   70300   -321.54122    537.93966 
   70400   -321.37078    516.99636 
   70500   -321.37537     517.5685 
   70600   -321.24991    502.18353 
   70700   -322.10771     607.4525 
   70800   -321.32106    510.90895 
   70900   -321.19132    494.96757 
   71000   -321.60933    546.28699 
   71100   -321.35864    515.52274 
   71200    -321.6078    546.09694 
   71300   -321.70605    558.15098 
   71400   -319.71039    490.29914 
   71500   -321.56739    541.03428 
   71600   -321.46566    528.54699 
   71700   -322.04647    599.88976 
   71800   -321.35186    514.65746 
   71900   -321.58154    542.83035 
   72000   -321.47351    529.56093 
   72100   -321.32286    511.07503 
   72200   -321.21821    498.21983 
   72300   -321.00562    472.13632 
   72400   -321.35729    515.28828 
   72500   -319.64928    482.47703 
   72600   -321.39928    520.15776 
   72700   -321.29614    507.48253 
   72800   -321.26879    504.12395 
   72900   -321.69562    556.51639 
   73000      -321.56     539.8722 
   73100   -320.89305    457.99673 
   73200   -320.99714    470.76991 
   73300    -321.3787     517.6204 
   73400   -321.51775    534.70411 
   73500   -321.44369    525.61136 
   73600   -321.25808    502.81088 
   73700   -321.23553    500.05363 
   73800   -322.06781     602.2019 
   73900   -321.17625    492.76036 
   74000   -321.35763    515.02707 
   74100   -321.74804    562.96605 
   74200   -321.51446    534.29218 
   74300   -321.19154    494.62462 
   74400   -320.94444      464.306 
   74500   -321.46858    528.63491 
   74600   -321.30793      508.916 
   74700   -321.42754    523.59391 
   74800   -321.41207    521.71107 
   74900   -321.58261    542.64801 
   75000   -322.13177     610.0355 
   75100   -321.08278    481.29191 
   75200   -321.50385    532.98209 
   75300   -322.13769    610.77437 
   75400   -321.45254    526.96293 
   75500    -321.0216    474.06823 
   75600   -321.30012    508.23298 
   75700   -321.38949     519.1942 
   75800   -320.99203    470.42512 
   75900   -321.81863    571.87854 
   76000   -321.35584     515.0775 
   76100   -321.04973    477.50748 
   76200   -320.78662    445.21411 
   76300   -321.69431    556.62868 
   76400   -321.59105    543.96134 
   76500   -319.26277    435.02896 
   76600   -319.40992     453.0748 
   76700    -319.4724    460.78039 
   76800     -321.685    555.15317 
   76900   -321.61286    546.29574 
   77000   -321.58337    542.67137 
   77100   -319.99083    524.10761 
   77200   -321.59943    544.23292 
   77300   -321.02656    473.91817 
   77400   -321.29081    506.34837 
   77500   -321.25517    501.97926 
   77600   -320.62551    424.69681 
   77700   -321.09481    482.29121 
   77800   -321.45825    526.91524 
   77900   -321.45825    526.91558 
   78000   -321.02089    473.22645 
   78100   -320.74467    439.31588 
   78200   -321.56843    540.44169 
   78300   -321.53925    536.88195 
   78400   -321.56114     539.5591 
   78500   -321.41059    521.06417 
   78600   -321.88048    578.75619 
   78700   -321.96731    589.41469 
   78800   -321.61985    546.74982 
   78900   -321.39173    518.74592 
   79000   -321.42563    522.90913 
   79100    -321.3793    517.23072 
   79200   -321.33246    511.47341 
   79300   -321.19996    495.10301 
   79400   -319.65689    482.68834 
   79500   -319.79872    500.08928 
   79600   -321.38189    517.52009 
   79700   -321.54305    537.31275 
   79800    -321.6271    547.63752 
   79900   -321.21971    497.61991 
   80000   -321.14888     488.9247 
   80100   -321.56516    540.03937 
   80200   -321.86006     576.2303 
   80300   -321.58664    542.66976 
   80400   -321.82252     571.6187 
   80500    -321.4557    526.59347 
   80600   -321.33436    511.69374 
   80700   -321.55586    538.88681 
   80800   -321.10263    483.25822 
   80900   -320.86676    454.28659 
   81000   -321.06225    478.28264 
   81100     -321.423    522.57643 
   81200   -321.34002    512.38394 
   81300   -321.20038    495.24105 
   81400   -321.22239    497.95078 
   81500   -319.81741    502.55756 
   81600   -321.65363    551.23845 
   81700   -321.11237     484.8194 
   81800   -321.11064    484.61069 
   81900   -321.83468    573.46939 
   82000   -321.41372    521.80184 
   82100     -321.342    512.98785 
   82200   -320.90329    459.09764 
   82300   -322.06363    601.53651 
   82400   -321.83515    573.49811 
   82500   -321.13849     487.9601 
   82600   -321.60997    545.83594 
   82700    -321.4392    524.90292 
   82800   -321.77073    565.57844 
   82900   -320.71044    435.41825 
   83000   -321.70407    557.38812 
   83100   -321.50744    533.27156 
   83200   -321.27791    505.06777 
   83300   -319.97041    521.70376 
   83400   -321.35186     514.0304 
   83500   -321.36312    515.15121 
   83600   -321.55239    538.37861 
   83700   -321.11916    485.20953 
   83800   -321.09936    482.76592 
   83900   -320.97211    467.13305 
   84000   -320.76965     442.3005 
   84100   -321.76121    564.00733 
   84200    -320.9328     462.3243 
   84300    -321.1304    486.57259 
   84400   -321.02721    473.91744 
   84500    -322.0197    595.75335 
   84600   -321.61828    546.47268 
   84700    -319.5158    465.35186 
   84800   -321.60073    544.37622 
   84900   -321.46784    528.08586 
   85000   -321.53911    536.82981 
   85100   -321.81206    570.33269 
   85200   -321.46963    528.29657 
   85300   -321.13117      486.756 
   85400   -321.44287     525.0007 
   85500   -321.06991    479.22579 
   85600   -321.55858    539.19886 
   85700   -321.42095    522.32284 
   85800   -321.36111    514.97546 
   85900   -321.32683     510.5769 
   86000   -321.31307    508.89687 
   86100   -321.41854     521.8456 
   86200   -321.93433    585.15454 
   86300   -321.19771    494.73265 
   86400   -320.95413    464.82536 
   86500   -321.33222    511.24732 
   86600   -321.83234    572.63569 
   86700   -321.49377    531.06889 
   86800   -321.07274    479.38882 
   86900   -321.31123    508.66255 
   87000   -321.67775    553.67015 
   87100   -321.68565    554.63557 
   87200   -321.14358    488.07516 
   87300   -321.86997    577.25654 
   87400   -321.85305    575.19073 
   87500   -320.96457    466.10913 
   87600   -321.01212    471.92651 
   87700   -321.92751    584.31851 
   87800   -321.22343    497.89761 
   87900   -320.70472    434.20864 
   88000   -321.59774    543.84352 
   88100   -321.59344    543.32654 
   88200   -321.23392    499.17428 
   88300   -321.28322    505.22536 
   88400   -321.43516    523.88514 
   88500   -321.74549    561.96978 
   88600   -321.64275    549.36713 
   88700   -321.32253    510.06583 
   88800   -321.23289    499.04875 
   88900   -321.63618    548.55026 
   89000   -321.38964     518.2921 
   89100   -321.79482    568.00888 
   89200   -321.13827     487.4429 
   89300   -321.65511    550.87991 
   89400   -319.48412    461.43521 
   89500   -321.43773    524.17771 
   89600   -321.24311    500.28177 
   89700   -320.98369    468.45143 
   89800   -321.57173    540.63396 
   89900   -321.07543    479.71805 
   90000   -321.55721    538.84119 
   90100   -321.99685    592.81252 
   90200   -321.40261    519.89024 
   90300   -321.54985     537.9379 
   90400   -319.22362    429.18503 
   90500   -321.06221     477.5664 
   90600   -322.00174    592.88405 
   90700   -321.41015     520.2766 
   90800   -321.37702    516.20434 
   90900   -321.62359    546.45814 
   91000   -320.33253    565.15021 
   91100   -321.34091    511.97313 
   91200    -321.3143    508.70851 
   91300    -321.8186    570.60705 
   91400   -321.60935    544.92687 
   91500   -321.79204    567.34037 
   91600   -321.35949    514.25518 
   91700   -321.52986    535.15589 
   91800   -321.58361     541.7474 
   91900   -321.37289    515.89122 
   92000   -321.48324    529.43231 
   92100   -321.50072    531.57789 
   92200   -321.63578    548.15652 
   92300   -321.30565    507.64262 
   92400   -321.26169    502.23659 
   92500   -320.91058    459.13586 
   92600   -321.57879    541.16708 
   92700    -321.5871    542.20119 
   92800   -321.31566    508.86295 
   92900   -319.89893    511.97443 
   93000   -321.42198    521.76577 
   93100   -321.37496    515.98554 
   93200    -321.2545    501.18388 
   93300   -321.71817     558.1088 
   93400   -321.67742     553.1058 
   93500   -321.32008     509.2381 
   93600   -321.27117    503.23857 
   93700   -321.61791    545.80544 
   93800   -321.38428    517.10713 
   93900   -319.71652    489.59048 
   94000   -320.15097     542.9336 
   94100    -321.0079    471.44348 
   94200   -321.49355    531.05174 
   94300   -321.69599    555.89831 
   94400   -321.35414    513.93568 
   94500   -321.08042    480.33956 
   94600   -321.39991    519.55838 
   94700   -321.38477    517.68854 
   94800   -321.04049    475.43719 
   94900   -321.18305    492.92165 
   95000   -320.05346    531.49039 
   95100   -321.29055     506.4565 
   95200   -321.52566    535.31562 
   95300    -321.5412    537.23676 
   95400   -321.44268    525.13589 
   95500   -321.17503    492.27981 
   95600    -321.4278    523.31466 
   95700   -321.30493    508.22518 
   95800   -321.46061    527.34048 
   95900    -321.6477    550.32526 
   96000   -322.08691    604.22447 
   96100   -320.92088    461.07855 
   96200   -320.58764    420.16413 
   96300   -321.57212    541.03258 
   96400   -322.09045    604.66331 
   96500   -321.17371    492.11402 
   96600   -320.40897    398.23486 
   96700   -321.09055    481.91637 
   96800   -321.43707    524.44872 
   96900   -321.38586    518.15569 
   97000   -321.70564     557.4142 
   97100   -321.59964    544.41817 
   97200   -321.58346    542.42049 
   97300   -321.10217    483.32706 
   97400   -321.34735    513.44539 
   97500     -321.747    562.50884 
   97600    -321.0525    477.24199 
   97700   -321.11963    485.47569 
   97800   -321.72647     559.9761 
   97900   -321.83235    572.97357 
   98000   -321.19033    494.15583 
   98100   -321.02727    474.14699 
   98200   -321.43877    524.65935 
   98300   -321.25403    501.98744 
   98400   -321.53607    536.59046 
   98500   -321.38601     518.1845 
   98600   -321.53948    537.02095 
   98700   -321.03429    475.01161 
   98800   -321.29591    507.12163 
   98900   -320.26108    557.18296 
   99000   -320.98789    469.57487 
   99100   -321.35823    515.03064 
   99200   -320.23154     553.9305 
   99300   -321.57131     541.1565 
   99400   -321.52395    535.34316 
   99500   -319.64507    481.77947 
   99600   -321.80409    569.72595 
   99700    -320.9839    469.05361 
   99800   -321.05989    478.36241 
   99900   -321.92767     584.8726 
  100000   -321.66011    552.05237 
  100100   -321.51487     534.2271 
  100200   -321.46726    528.36834 
  100300   -321.33035    511.57076 
  100400   -321.84847    575.16208 
  100500   -321.55611    539.28309 
  100600   -322.02164    596.41026 
  100700    -321.3204    510.34765 
  100800   -321.97499    590.68567 
  100900   -322.09759    605.74409 
  101000   -321.59639    544.24288 
  101100   -322.24582    623.92765 
  101200    -321.2105    496.85478 
  101300   -321.28665    506.20101 
  101400   -321.39876    519.97004 
  101500     -321.656     551.5542 
  101600   -321.74036    561.90651 
  101700   -321.74148    562.02349 
  101800    -320.9216    461.38379 
  101900   -321.33999    512.74772 
  102000   -321.34776    513.71412 
  102100   -321.26372    503.37793 
  102200   -321.19016    494.35647 
  102300   -321.22269    498.36243 
  102400    -321.7149      558.784 
  102500    -321.1334    487.39912 
  102600   -321.38369    518.10559 
  102700   -321.56224    540.04037 
  102800   -321.59574    544.14917 
  102900    -321.5756    541.67753 
  103000   -321.92399     584.4479 
  103100   -321.91665     583.5378 
  103200    -321.5869    543.06333 
  103300   -320.34824     567.9396 
  103400   -321.71502    558.90485 
  103500   -321.37224    516.83226 
  103600   -321.78447    567.42681 
  103700   -321.42833    523.72154 
  103800   -321.57488    541.71265 
  103900   -321.71125    558.44716 
  104000   -321.06283    478.86067 
  104100   -321.68413    555.10784 
  104200   -321.71978    559.49481 
  104300   -321.83218    573.29397 
  104400   -321.36653    516.12561 
  104500    -321.4114    521.62743 
  104600   -321.54823    538.42781 
  104700   -321.38747    518.70855 
  104800   -321.38883    518.87137 
  104900   -321.41364    521.89456 
  105000   -321.17327    492.40875 
  105100    -321.3855    518.46526 
  105200   -321.44521    525.78268 
  105300   -321.26246    503.34689 
  105400   -321.18469    493.81423 
  105500   -321.07943    480.90027 
  105600   -321.41248    521.76679 
  105700   -321.22345    498.56474 
  105800   -321.43743    524.83342 
  105900   -321.62089    547.35897 
  106000   -321.31805    510.15787 
  106100   -321.81162    570.75003 
  106200   -321.73433    561.29256 
  106300   -321.89392    580.87427 
  106400   -321.38742    518.82149 
  106500     -321.416    522.32797 
  106600   -321.43129    524.21696 
  106700   -321.22899    499.36741 
  106800   -321.41472    522.16202 
  106900   -321.64606    550.56952 
  107000   -321.78543    567.67841 
  107100   -321.47829    529.97459 
  107200   -320.97605    468.33442 
  107300   -321.56778    540.94729 
  107400   -321.14158    488.63496 
  107500   -320.93932    463.79757 
  107600   -321.13298    487.58472 
  107700   -321.62076    547.46681 
  107800   -321.29471    507.44849 
  107900   -321.18294    493.73155 
  108000   -321.54996    538.77298 
  108100   -321.42403    523.31514 
  108200   -321.85663    576.41045 
  108300   -321.37504    517.30837 
  108400   -321.40111    520.50809 
  108500   -321.18538    494.01272 
  108600   -321.11059    484.84544 
  108700   -321.42413    523.33943 
  108800   -321.09061    482.37641 
  108900   -319.52167    466.94672 
  109000   -321.32163    510.95086 
  109100   -320.11366     539.5297 
  109200   -319.82282    503.79847 
  109300   -321.63062    548.96557 
  109400   -321.64875    551.19841 
  109500   -321.22936    499.70288 
  109600   -320.88696    457.68007 
  109700   -322.10582    607.30224 
  109800   -321.35424    515.05105 
  109900   -321.36724    516.64598 
  110000   -321.54472    538.43233 
  110100   -321.60851    546.26678 
  110200   -321.15148    490.14931 
  110300    -321.4676    528.95877 
  110400   -321.72273    560.28675 
  110500    -321.2769    505.56569 
  110600   -320.99026    470.37266 
  110700   -321.77892    567.17477 
  110800   -321.42693    523.97569 
  110900   -319.35413    446.23412 
  111000   -321.30067    508.49227 
  111100   -321.31582    510.38302 
  111200   -321.85423    576.46137 
  111300   -321.26528    504.15477 
  111400   -320.95641    466.23432 
  111500   -320.22439    553.25619 
  111600   -321.12187    486.56831 
  111700   -321.09829    483.64719 
  111800   -321.27091    504.83719 
  111900   -321.60107    545.36981 
  112000   -321.60576     545.9589 
  112100   -321.54082    537.97658 
  112200   -321.40216    520.93694 
  112300   -320.90706    460.17003 
  112400   -321.56198    540.58174 
  112500   -321.34661    514.15213 
  112600   -321.14037    488.82046 
  112700   -321.43046    524.41677 
  112800   -321.52168    535.63293 
  112900   -321.88178    579.83067 
  113000   -321.49934    532.83028 
  113100   -321.17981       493.61 
  113200   -321.36548    516.39529 
  113300   -321.09814    483.58191 
  113400   -321.40711    521.50225 
  113500   -321.37664    517.80605 
  113600   -321.55911    540.18285 
  113700   -321.00143    471.69928 
  113800   -321.34684    514.10478 
  113900    -321.5981    544.96542 
  114000   -321.44116    525.70234 
  114100   -321.32869    511.86814 
  114200   -321.16986    492.37783 
  114300   -321.91426    583.77721 
  114400   -321.54916    538.94246 
  114500   -320.83386    451.13181 
  114600    -321.5215    535.55232 
  114700   -321.42933    524.24805 
  114800   -321.00585    472.24929 
  114900   -321.12566    486.95493 
  115000   -321.71948    559.86706 
  115100   -321.44467    526.12213 
  115200   -321.27003    504.66074 
  115300   -321.27372    505.12429 
  115400   -321.68316    555.40873 
  115500   -321.39821    520.43129 
  115600   -320.89797    459.00752 
  115700   -321.41241    522.15022 
  115800   -321.42873    524.17732 
  115900   -321.58698    543.59544 
  116000   -321.30756     509.2941 
  116100   -321.12845    487.30475 
  116200   -321.48812    531.44559 
  116300   -321.54696    538.67825 
  116400   -321.93135    585.85956 
  116500   -321.62784    548.60357 
  116600   -319.60852    477.64954 
  116700    -321.1683    492.23196 
  116800   -322.08299    604.50748 
  116900   -321.52219    535.67085 
  117000   -321.34034    513.33756 
  117100   -321.21717    498.22808 
  117200   -321.35442    515.07666 
  117300   -321.12331    486.70785 
  117400   -321.51618    534.93125 
  117500   -321.63204    549.15356 
  117600   -321.45912    527.93833 
  117700   -321.66297    552.95825 
  117800   -321.08984    482.58382 
  117900   -321.40861    521.71624 
  118000   -321.76734    565.77381 
  118100   -320.43182    578.85475 
  118200   -321.25416    502.82665 
  118300   -321.05161    477.96567 
  118400   -321.40933    521.90365 
  118500   -321.72147    560.21954 
  118600   -321.21869    498.48968 
  118700   -319.88095    511.22027 
  118800   -321.13811    488.49919 
  118900   -321.50681    533.74607 
  119000    -321.6793    554.92183 
  119100   -321.38061    518.26802 
  119200    -321.6994    557.23673 
  119300    -321.2519    502.30401 
  119400   -320.92128    461.72847 
  119500   -321.51427    534.50114 
  119600    -321.2775    505.46055 
  119700   -321.61569    546.96845 
  119800   -319.60611    477.29241 
  119900   -321.25317    502.44989 
  120000    -321.7099    558.51291 
  120100   -321.61056    546.31399 
  120200   -321.27207    504.77119 
  120300   -321.55046    538.93726 
  120400   -321.35292    514.69242 
  120500   -321.64776    550.89108 
  120600   -321.79332    568.75647 
  120700   -320.90224    459.36452 
  120800   -321.60256    545.31746 
  120900   -321.97102    590.57531 
  121000   -321.21499    497.77277 
  121100   -320.91711     461.1812 
  121200   -321.53093    536.55273 
  121300   -321.50552    533.43749 
  121400   -321.12817    487.09548 
  121500    -321.2698    504.49858 
  121600   -322.03604    598.56052 
  121700   -321.45953    527.79141 
  121800    -321.3352    512.51587 
  121900   -321.97675    591.28125 
  122000   -321.82546    572.45969 
  122100   -321.09873    483.23625 
  122200   -321.61438    546.54052 
  122300   -321.37054    516.61725 
  122400   -321.29282    507.06327 
  122500   -321.59135    543.69006 
  122600   -319.66888    484.54125 
  122700   -321.10505    483.69343 
  122800   -320.55521    416.16922 
  122900   -319.71531    490.40672 
  123000   -321.95037      587.933 
  123100   -321.28892    506.73943 
  123200    -320.7813    444.39856 
  123300   -320.76122    441.75208 
  123400    -321.2977     507.6159 
  123500   -321.44797    526.06116 
  123600   -321.14793     489.2318 
  123700    -321.7978    569.00929 
  123800   -321.26687    503.84711 
  123900   -321.11138    484.74529 
  124000   -321.25569    502.45782 
  124100    -321.4608    527.64969 
  124200   -321.48773    530.94859 
  124300   -319.63176      480.398 
  124400   -319.64451    481.89087 
  124500   -321.73864    562.02075 
  124600   -321.20381    496.38548 
  124700   -321.27194    504.71886 
  124800   -321.35055    514.36254 
  124900    -321.6448    550.49319 
  125000   -321.94822    587.72386 
  125100   -321.20823    496.90397 
  125200   -320.10901    538.84733 
  125300   -321.06567    479.19558 
  125400   -321.54881    538.49315 
  125500   -321.18742    494.14051 
  125600   -321.33591    512.35753 
  125700   -321.24538    501.25376 
  125800   -321.65194    551.14155 
  125900   -321.49801    532.22819 
  126000   -321.20599    496.40185 
  126100   -321.50569    533.19782 
  126200   -321.33235    511.92981 
  126300   -321.27151    504.44666 
  126400    -321.2142    497.41364 
  126500   -321.69397      556.323 
  126600     -321.786    567.61915 
  126700   -321.56618    540.61891 
  126800   -319.86981    509.47767 
  126900   -321.32345    511.04305 
  127000   -321.63702    549.52276 
  127100   -321.46128    527.96175 
  127200   -321.20813    496.87753 
  127300   -321.13716    488.33742 
  127400   -319.09568     414.7516 
  127500   -321.75241    563.85934 
  127600   -321.57349    541.97469 
  127700   -321.19999     496.1289 
  127800   -320.98074    469.21508 
  127900   -319.63928    481.41035 
  128000    -320.9903    470.40594 
  128100   -319.80326    501.82556 
  128200   -321.34841     514.7341 
  128300   -321.73862    562.61952 
  128400    -321.2691    504.98184 
  128500   -321.11464    486.04216 
  128600   -321.30856    509.84278 
  128700   -321.39068    519.90989 
  128800   -321.18708     494.9197 
  128900   -322.03953    599.56372 
  129000   -321.30176    509.01394 
  129100   -321.63218      549.549 
  129200   -321.27505    505.72325 
  129300   -321.40597    521.80196 
  129400   -321.31939     511.1727 
  129500   -321.39951    521.00037 
  129600   -320.93685    464.20916 
  129700   -321.47634    530.43716 
  129800   -321.09783    483.98366 
  129900    -321.2539    503.12399 
  130000   -321.10056    484.28832 
  130100   -321.27537    505.77051 
  130200   -321.70745    558.80499 
  130300   -319.70317    489.95212 
  130400   -321.43229     525.1714 
  130500   -321.60985    546.96861 
  130600   -321.50082    533.57688 
  130700   -321.60739    546.67131 
  130800   -321.49539    532.92359 
  130900    -321.7644    565.94077 
  131000   -321.31956    511.33631 
  131100    -321.7272    561.36896 
  131200   -321.56835     542.0021 
  131300   -321.22593    499.96795 
  131400   -321.40557    522.00696 
  131500   -321.22791    500.20339 
  131600   -321.41298    522.92185 
  131700   -321.61855    548.16078 
  131800   -321.47323    530.31523 
  131900   -321.54115    538.64879 
  132000   -321.84174    575.55864 
  132100   -321.60736    546.78155 
  132200   -319.56269    472.96006 
  132300   -321.92488    585.98731 
  132400   -321.32318    512.14702 
  132500   -321.59419    545.39306 
  132600   -321.22507    500.10167 
  132700   -321.22434    499.79287 
  132800   -321.00268    472.57916 
  132900   -321.89292    581.84871 
  133000   -319.82021    504.48245 
  133100   -321.27622    506.48695 
  133200   -321.57507    543.18147 
  133300   -321.52513    537.04784 
  133400    -320.2092    552.67528 
  133500   -321.58746    544.91928 
  133600   -321.39064    520.76066 
  133700    -320.6599    431.05732 
  133800   -321.16544    493.05972 
  133900   -321.31309    511.19467 
  134000   -321.59805    546.16357 
  134100   -321.07111    481.46796 
  134200   -320.96378    468.32415 
  134300   -321.03067    476.55466 
  134400   -321.53365    538.29673 
  134500   -321.28262    507.46939 
  134600   -321.51292    535.80853 
  134700   -321.30945     510.8315 
  134800   -321.28645    508.01465 
  134900   -321.16283    492.84226 
  135000   -321.39653    521.51719 
  135100   -320.94634    466.27065 
  135200   -321.31189    511.12946 
  135300   -321.55261    540.68967 
  135400   -321.59115    545.42766 
  135500   -321.29162    508.64093 
  135600   -320.90566    461.26245 
  135700   -321.62615    549.70244 
  135800   -321.49963    534.18232 
  135900   -321.60381    546.95068 
  136000   -321.46714    530.18697 
  136100   -321.36127    517.18959 
  136200   -321.44233    527.13912 
  136300   -321.12351    488.01525 
  136400   -321.77991    568.58662 
  136500   -321.23702    501.93804 
  136600    -321.2673    505.65266 
  136700   -321.51358    535.88882 
  136800   -321.38575    520.20587 
  136900    -321.1709    493.82811 
  137000   -321.45721    528.80637 
  137100   -321.56875    542.44319 
  137200   -321.38392    519.77257 
  137300   -321.32756    512.83937 
  137400   -320.92643    463.60648 
  137500   -321.44082    526.75171 
  137600   -321.47886    531.42519 
  137700   -321.60626     547.0446 
  137800   -321.13218    488.86239 
  137900   -321.71978    560.98564 
  138000    -321.0623    480.29444 
  138100   -321.19042    496.00507 
  138200   -321.56716     542.2558 
  138300   -322.14311    612.97024 
  138400   -321.67841    555.92101 
  138500   -321.11367    486.56947 
  138600   -320.09753     538.9323 
  138700   -322.26793    628.35944 
  138800    -321.3553    516.32943 
  138900   -321.21857    499.52782 
  139000   -321.73552    563.00283 
  139100   -321.81889    573.24432 
  139200   -321.25806    504.39201 
  139300   -321.19372    496.49167 
  139400   -321.46307    529.56251 
  139500    -321.4387    526.55774 
  139600     -321.712    560.10078 
  139700   -321.59936    546.29179 
  139800   -321.59111    545.26475 
  139900   -321.35802    516.65215 
  140000   -321.28273    507.43054 
  140100   -321.41896     524.1416 
  140200   -321.34994     515.6553 
  140300   -321.14256     490.2156 
  140400   -320.89918    460.33633 
  140500   -320.68137    433.58393 
  140600   -321.45068    528.03857 
  140700   -321.14685    490.74087 
  140800   -320.63163    427.47063 
  140900   -321.01793    474.90706 
  141000   -321.69283    557.76396 
  141100   -321.14822    490.90498 
  141200   -321.13279     489.0081 
  141300   -321.45805    528.95349 
  141400   -321.89176    582.18471 
  141500   -318.42906    511.27567 
  141600   -321.09902    484.76736 
  141700   -321.43661    526.20721 
  141800    -321.2285    500.66308 
  141900   -321.09646    484.43537 
  142000   -320.98356    470.58146 
  142100   -321.22164    499.81687 
  142200   -321.72036    561.03068 
  142300   -320.94128    465.39629 
  142400   -321.42842    525.19012 
  142500   -321.23211    501.10673 
  142600   -321.00075    472.70389 
  142700   -321.33508    513.72454 
  142800   -321.30264     509.7498 
  142900   -321.67681    555.68416 
  143000    -321.6729    555.20949 
  143100   -321.35018    515.59043 
  143200   -321.27241    506.04288 
  143300   -321.22437    500.14025 
  143400   -319.64165    482.91803 
  143500    -321.5758    543.36519 
  143600   -321.76892    567.07806 
  143700   -321.63883    551.10661 
  143800   -321.57543    543.32036 
  143900   -321.51778    536.24121 
  144000   -321.45594    528.64284 
  144100   -321.20558    497.92037 
  144200   -321.40822    522.79086 
  144300   -319.83845    506.93196 
  144400   -321.33955    514.15874 
  144500   -321.29309    508.46571 
  144600   -321.51383    535.54232 
  144700   -319.87745    511.58033 
  144800   -319.88746    512.39537 
  144900   -321.96057    589.97555 
  145000   -322.10973    608.29657 
  145100   -321.55728    540.47648 
  145200   -321.65254    552.17125 
  145300   -321.80537    570.93129 
  145400   -321.74484    563.49023 
  145500   -321.06902    480.54753 
  145600   -321.63469    549.97782 
  145700   -321.38483    519.30931 
  145800   -321.16769    492.65111 
  145900   -321.67167    554.51483 
  146000   -321.62076    548.26904 
  146100   -321.39393    520.41745 
  146200   -321.20413    497.13023 
  146300   -321.58839    544.29955 
  146400   -321.50317    533.83049 
  146500   -321.08703    482.75961 
  146600   -321.67478    554.88578 
  146700   -321.06437    479.96896 
  146800   -321.20009    496.63641 
  146900   -321.68304     555.9126 
  147000   -321.20542    497.28462 
  147100     -321.508    533.99448 
  147200   -321.52382    535.94217 
  147300   -319.73372    493.19391 
  147400    -319.4673    460.26219 
  147500   -321.20359    496.53181 
  147600   -319.57065    473.42624 
  147700   -321.26351    503.63266 
  147800   -321.29615    507.65263 
  147900   -320.24223     555.4873 
  148000   -321.13729    488.33041 
  148100   -321.28971    507.03178 
  148200   -321.76412    565.26953 
  148300   -321.17325    492.76191 
  148400   -321.41134    521.97998 
  148500   -321.53476    537.13368 
  148600   -319.70414    489.57453 
  148700   -321.63176    548.88341 
  148800   -320.99875    471.17766 
  148900   -321.37137    516.92335 
  149000   -321.62468    548.02302 
  149100   -321.74454    562.73187 
  149200   -321.44051    525.40972 
  149300   -321.77547    566.50894 
  149400   -321.17092    492.33248 
  149500   -321.79627    569.07908 
  149600   -321.43082    524.19525 
  149700     -321.024    474.28028 
  149800   -321.49076     531.5778 
  149900   -321.34862     514.1171 
  150000   -321.08626    481.90777 
  150100   -321.49281    531.80983 
  150200   -321.22973    499.52721 
  150300   -321.23086    499.66314 
  150400   -321.23846    500.84121 
  150500   -321.60048    545.26994 
  150600   -321.45729    527.68811 
  150700   -321.00697    472.41881 
  150800   -321.09035    482.65008 
  150900   -321.09063    482.48433 
  151000    -319.8406    506.06833 
  151100   -321.44937    526.61764 
  151200   -321.33227    512.24387 
  151300   -321.48689     531.1986 
  151400   -321.23262    500.01055 
  151500   -321.76354    565.17382 
  151600   -321.01001    472.66071 
  151700   -321.65219    551.50258 
  151800    -321.8178    571.82165 
  151900   -321.66763    553.37515 
  152000   -321.13731    488.25452 
  152100   -321.24633    501.64238 
  152200   -321.67391    554.12781 
  152300   -320.40507    575.56167 
  152400   -321.14669     489.8384 
  152500   -321.90608    583.04603 
  152600   -321.37099    517.37865 
  152700   -321.53332    537.29376 
  152800   -321.88579    580.54751 
  152900   -321.05385    478.44502 
  153000   -321.74041    562.71694 
  153100   -321.58056    543.10748 
  153200   -321.86198    577.65426 
  153300   -321.53247    537.19374 
  153400    -321.8688    578.47357 
  153500   -321.50855    534.26398 
  153600   -319.72351    492.11045 
  153700   -321.55603    539.78775 
  153800   -321.62369    548.09528 
  153900   -321.57249    541.83944 
  154000    -322.1451    612.11341 
  154100   -321.33964    513.25398 
  154200   -321.57095    541.62979 
  154300   -321.67321    554.19562 
  154400   -321.48192    530.71366 
  154500    -321.4104    521.92609 
  154600   -321.39893    520.53285 
  154700     -321.684    555.52084 
  154800   -321.44141    525.73348 
  154900   -321.32084    510.95242 
  155000   -322.13988    611.47599 
  155100   -321.34684    514.11472 
  155200   -321.03089    475.33212 
  155300   -319.84252    506.62771 
  155400   -319.89714    513.26482 
  155500   -321.45179    527.04617 
  155600   -320.89549    458.75939 
  155700   -321.68136     555.2163 
  155800   -320.96378      467.159 
  155900   -321.41739    522.82054 
  156000   -321.01561    473.50486 
  156100   -321.05222    477.99274 
  156200   -321.10113    483.99362 
  156300   -321.13644    488.33949 
  156400    -321.5566    539.89613 
  156500   -320.82351    449.90919 
  156600   -321.09876    483.70254 
  156700   -321.34281    513.67736 
  156800   -321.40849    521.72412 
  156900   -321.20127    496.30658 
  157000   -321.01371    473.28947 
  157100   -321.31683    510.47392 
  157200   -319.51021    465.52143 
  157300   -319.60919    477.67942 
  157400    -321.5093    533.83965 
  157500   -321.78574    567.78751 
  157600   -321.50032    532.74348 
  157700   -321.35123    514.43511 
  157800   -321.33393    512.32029 
  157900   -321.66236    552.62817 
  158000   -321.52521    535.78948 
  158100   -321.60351    545.40589 
  158200   -321.78736    567.98482 
  158300   -321.12345    486.48196 
  158400   -321.31322    509.76381 
  158500   -321.42265    523.37727 
  158600   -321.03707    476.04636 
  158700   -320.99041    470.31543 
  158800   -321.00891    472.59108 
  158900   -321.52213    535.59486 
  159000   -320.38064    573.29543 
  159100   -318.00439    458.60996 
  159200   -321.32792    512.53258 
  159300    -321.5554    540.46481 
  159400    -321.4945    532.99605 
  159500    -319.7514    496.30218 
  159600   -321.50975    534.93447 
  159700   -321.43803    526.13217 
  159800   -321.54345    539.07658 
  159900   -321.57962    543.53185 
  160000   -321.38375    519.48798 
  160100    -320.9699    468.67295 
  160200   -320.03384    530.95533 
  160300   -321.56569    542.13457 
  160400   -321.64479     551.8413 
  160500   -321.67174     555.1262 
  160600    -319.8909    513.63021 
  160700   -322.27159       628.83 
  160800   -321.34851    515.53578 
  160900   -319.53686    470.24651 
  161000   -321.09021     483.8815 
  161100   -321.54638    539.89161 
  161200   -321.49271    533.30794 
  161300   -321.86724    579.27503 
  161400   -321.64912    552.50803 
  161500   -321.61033    547.71624 
  161600   -320.95917    467.79284 
  161700   -321.31628    511.63731 
  161800   -321.42881    525.43778 
  161900   -321.11359    486.76132 
  162000   -321.79195    570.02512 
  162100   -321.02866    476.34455 
  162200   -321.14294     490.3433 
  162300    -320.8256    451.38935 
  162400   -320.86346     456.0389 
  162500   -319.76544     498.5206 
  162600   -319.80823    503.78244 
  162700   -321.31752    512.12546 
  162800   -321.38941    520.95266 
  162900   -321.42037    524.74192 
  163000    -321.3059    510.68668 
  163100   -320.05122    533.73805 
  163200    -321.3567     517.0651 
  163300   -321.52525    537.74714 
  163400    -321.3524    516.53407 
  163500   -321.82137    574.10743 
  163600    -321.8023    571.77234 
  163700   -320.99832    473.19923 
  163800   -321.12057    488.19184 
  163900   -321.15691    492.68067 
  164000   -321.86917    580.10924 
  164100   -321.46582     530.5874 
  164200   -321.13056    489.43239 
  164300    -321.2352    502.27972 
  164400   -321.30948    511.39371 
  164500   -321.05533    480.18922 
  164600   -321.51646    536.80714 
  164700   -321.66453    554.98262 
  164800   -321.14515     491.2211 
  164900   -319.52931    469.57315 
  165000   -321.05906    480.27132 
  165100   -321.25465    504.30655 
  165200   -319.44105    458.82599 
  165300    -321.3177    512.19518 
  165400   -321.26199    505.37324 
  165500   -321.39679    521.76788 
  165600   -321.60421    547.22381 
  165700   -321.76794    567.31297 
  165800   -321.69679    558.58654 
  165900   -321.73853    563.71474 
  166000   -319.97797    524.57112 
  166100   -319.74609     496.1486 
  166200   -320.12742    543.06811 
  166300   -320.74731    441.91979 
  166400   -321.10044    485.27669 
  166500   -321.29312    508.92161 
  166600   -321.50359    534.77036 
  166700   -319.84575     508.5721 
  166800   -321.35988    517.10971 
  166900    -321.2746    506.65608 
  167000   -321.96555    591.45411 
  167100   -321.63262     550.5951 
  167200   -321.56485     542.2757 
  167300   -321.53989    539.21938 
  167400   -321.47548    531.32906 
  167500   -319.92219    517.68777 
  167600   -321.07254    481.61762 
  167700   -321.34073    514.49962 
  167800   -321.56736    542.32978 
  167900    -321.1844    495.32029 
  168000   -321.28245     507.3544 
  168100   -319.80831    503.30581 
  168200   -321.15698     491.8451 
  168300   -321.14386    490.22557 
  168400   -319.81314    503.92029 
  168500   -321.40228    521.99562 
  168600   -321.35199    515.83719 
  168700   -321.40939    522.87985 
  168800    -322.0448    600.86319 
  168900   -321.53039    537.73829 
  169000    -321.7513    564.84892 
  169100   -321.83665    575.10243 
  169200   -321.55406    540.43157 
  169300   -321.96619    591.01879 
  169400   -320.06717    534.92285 
  169500    -319.4898    464.03235 
  169600   -321.29472    508.45255 
  169700   -320.83619     452.1892 
  169800   -319.74317    494.92188 
  169900     -319.444     458.4124 
  170000   -319.61045    479.08668 
  170100   -321.70487    559.17494 
  170200   -321.44067    526.84064 
  170300   -321.09494    484.38479 
  170400   -321.29611    509.08788 
  170500   -322.08915    606.43495 
  170600   -321.22602    500.49851 
  170700   -321.51437    535.87679 
  170800   -321.18963    496.02151 
  170900   -321.29646    509.12959 
  171000   -321.49652    533.67988 
  171100   -321.69238    557.71035 
  171200   -321.31463    511.35066 
  171300   -321.58213    544.19302 
  171400   -321.65221    552.79824 
  171500    -321.6644    554.28357 
  171600   -320.02469    530.31124 
  171700   -320.04361    532.63602 
  171800   -321.38628    520.56893 
  171900   -321.66936    555.31156 
  172000   -321.42997     525.9303 
  172100   -321.38495    520.40117 
  172200   -320.91832    463.12631 
  172300   -321.30038    510.01141 
  172400   -319.47082    462.51168 
  172500   -320.76333    443.97863 
  172600   -321.42119    524.70134 
  172700   -320.96386    468.58133 
  172800   -321.43868    526.87161 
  172900   -321.72284    561.75263 
  173000   -321.53619    538.85306 
  173100   -321.50112    534.55178 
  173200   -320.10952    540.54337 
  173300   -320.95931    467.59214 
  173400   -321.68131    556.21182 
  173500   -321.46311    529.44903 
  173600   -321.67832     555.8497 
  173700   -319.70031      490.011 
  173800    -321.7071    559.34797 
  173900   -321.39679    521.25992 
  174000    -321.6149    548.03475 
  174100   -321.85276    577.37547 
  174200    -321.4532    528.35372 
  174300   -320.34193    569.06149 
  174400   -321.24927    503.48518 
  174500   -321.32084    512.29228 
  174600   -321.73295    562.89138 
  174700   -321.55764    541.36368 
  174800   -321.30231     509.9966 
  174900   -321.23511    501.76269 
  175000   -322.05202    602.04501 
  175100   -321.63531    550.91209 
  175200   -320.05643    534.00929 
  175300    -321.2105     498.4686 
  175400   -321.61758    548.44692 
  175500   -321.83718    575.40692 
  175600   -321.76878    567.00848 
  175700   -321.55943    541.29104 
  175800    -321.1981    496.93653 
  175900     -321.333    513.50904 
  176000   -321.47611    531.08217 
  176100   -321.36515    517.46597 
  176200   -321.52667    537.28724 
  176300   -321.53389     538.1798 
  176400   -321.19602    496.68773 
  176500   -320.83783    452.72108 
  176600   -321.61618    548.26988 
  176700   -321.20771    498.14618 
  176800   -321.26537    505.20498 
  176900   -321.04135     477.6958 
  177000   -319.80837    503.48174 
  177100   -321.66865    555.21711 
  177200    -321.5797    544.29586 
  177300    -321.2787    507.35605 
  177400   -321.55735    541.55856 
  177500    -321.4319    526.15381 
  177600     -321.427    525.54922 
  177700   -320.95637    467.77092 
  177800   -321.25394    504.30158 
  177900   -320.01997    529.98123 
  178000   -321.49036    533.67448 
  178100    -321.2032    498.42959 
  178200   -319.63866    483.22391 
  178300   -321.64364    552.49356 
  178400   -321.30101    510.43875 
  178500   -321.18013    495.57153 
  178600   -321.03317    477.55635 
  178700   -321.69873    559.24755 
  178800   -321.00545    474.14974 
 