LAMMPS MgO

64        atoms

2 atom types

            0       8.482      xlo xhi
            0       8.482      ylo yhi
            0       8.482      zlo zhi

Masses

            1       24.305
            2       15.9994

Atoms

1	1	0	0	0
2	1	0	2.1205	2.1205
3	1	2.1205	0	2.1205
4	1	2.1205	2.1205	0
5	1	0	0	4.241
6	1	0	2.1205	6.3615
7	1	2.1205	0	6.3615
8	1	2.1205	2.1205	4.241
9	1	0	4.241	0
10	1	0	6.3615	2.1205
11	1	2.1205	4.241	2.1205
12	1	0	4.241	4.241
13	1	0	6.3615	6.3615
14	1	2.1205	4.241	6.3615
15	1	2.1205	6.3615	4.241
16	1	2.1205	6.3615	0
17	1	4.241	0	0
18	1	4.241	2.1205	2.1205
19	1	6.3615	0	2.1205
20	1	6.3615	2.1205	0
21	1	4.241	0	4.241
22	1	4.241	2.1205	6.3615
23	1	6.3615	0	6.3615
24	1	6.3615	2.1205	4.241
25	1	4.241	4.241	0
26	1	4.241	6.3615	2.1205
27	1	6.3615	4.241	2.1205
28	1	6.3615	6.3615	0
29	1	4.241	4.241	4.241
30	1	4.241	6.3615	6.3615
31	1	6.3615	4.241	6.3615
32	1	6.3615	6.3615	4.241
33	2	2.1205	0	0
34	2	2.1205	2.1205	2.1205
35	2	0	0	2.1205
36	2	0	2.1205	0
37	2	2.1205	0	4.241
38	2	2.1205	2.1205	6.3615
39	2	0	0	6.3615
40	2	0	2.1205	4.241
41	2	2.1205	4.241	0
42	2	2.1205	6.3615	2.1205
43	2	0	4.241	2.1205
44	2	0	6.3615	0
45	2	2.1205	4.241	4.241
46	2	2.1205	6.3615	6.3615
47	2	0	4.241	6.3615
48	2	0	6.3615	4.241
49	2	6.3615	0	0
50	2	6.3615	2.1205	2.1205
51	2	4.241	0	2.1205
52	2	4.241	2.1205	0
53	2	6.3615	0	4.241
54	2	6.3615	2.1205	6.3615
55	2	4.241	0	6.3615
56	2	4.241	2.1205	4.241
57	2	6.3615	4.241	0
58	2	6.3615	6.3615	2.1205
59	2	4.241	4.241	2.1205
60	2	4.241	6.3615	0
61	2	6.3615	4.241	4.241
62	2	6.3615	6.3615	6.3615
63	2	4.241	4.241	6.3615
64	2	4.241	6.3615	4.241
