LAMMPS (17 Nov 2016)
newton on
boundary	 	 p p p
units	 	 	 metal
atom_style	 	 atomic

read_data lattice.xyz
  orthogonal box = (0 0 0) to (8.482 8.482 8.482)
  1 by 1 by 1 MPI processor grid
  reading atoms ...
  64 atoms

neighbor    0.01 bin
neigh_modify once yes
pair_style morse 2.5
#param1: 1.859170
#param2: 1.239920
pair_coeff 1 1 1 1 1
pair_coeff 2 2 1 1 1
pair_coeff 1 2 1.859170 1.239920 2.120500

# Initialize velocity, thermo settings, timestep and ensemble
velocity	 all create 1000 20101 rot yes mom yes
thermo  	 100
thermo_style custom step pe temp #ke press vol temp
fix 1 all nve
timestep  0.0005

# Run MD
dump 1 all xyz 100 dump.xyz
dump 2 all custom 100 dump.forces fx fy fz
#dump 3 all custom 1 dump.coords type xs ys zs
#dump_modify 3 format float %20.15g scale yes
dump_modify 2 sort id
run 1000000
Neighbor list info ...
  1 neighbor list requests
  update every 1 steps, delay 10 steps, check yes
  max neighbors/atom: 2000, page size: 100000
  master list distance cutoff = 2.51
  ghost atom cutoff = 2.51
  binsize = 1.255 -> bins = 7 7 7
Memory usage per processor = 4.62464 Mbytes
Step PotEng Temp 
       0   -356.96064         1000 
     100   -354.30501    674.05339 
     200   -351.92713    382.08209 
     300   -353.35563    557.47638 
     400   -353.99678    636.22387 
     500   -353.41241    564.44888 
     600   -352.57151    461.20218 
     700   -353.18318     536.3273 
     800    -353.9322    628.25857 
     900   -353.08596    524.36412 
    1000    -353.3864    561.24598 
    1100   -352.77691    486.43015 
    1200    -352.6995    476.92002 
    1300   -353.02502    516.91437 
    1400   -353.61664    589.53972 
    1500   -352.90717    502.41618 
    1600   -352.85391    495.87788 
    1700   -353.55631    582.10111 
    1800   -352.84288    494.52389 
    1900   -352.46253    447.84168 
    2000   -353.15347    532.66223 
    2100   -353.84446    617.49005 
    2200   -352.70148     477.1697 
    2300   -352.96477    509.49564 
    2400   -353.08316    524.04722 
    2500   -353.21292    539.96045 
    2600   -352.74711    482.76462 
    2700   -352.80754    490.18089 
    2800   -353.26025    545.67847 
    2900   -353.66042    594.81052 
    3000   -352.63063    468.38766 
    3100   -352.90696    502.31026 
    3200   -353.79558    611.39153 
    3300   -353.30594     551.2981 
    3400    -353.1744    535.12146 
    3500   -352.91912    503.81215 
    3600   -353.20381    538.77149 
    3700   -353.50339     575.5249 
    3800   -352.94708    507.24909 
    3900   -351.39774    513.30519 
    4000   -353.09153    524.97387 
    4100   -353.16573    534.02789 
    4200   -353.16138    533.50715 
    4300   -353.10757    526.89719 
    4400   -353.18841    536.81589 
    4500   -352.72997    480.54934 
    4600   -353.26341    546.02794 
    4700   -353.09265    525.06827 
    4800   -352.91772    503.58754 
    4900   -352.82437    492.02608 
    5000   -352.85544     495.8521 
    5100   -353.40651     563.5129 
    5200   -352.95596    508.21935 
    5300   -352.51686    454.28816 
    5400   -353.00973    514.79813 
    5500    -353.0719    522.44644 
    5600   -353.02614    516.81006 
    5700   -352.94669    507.06453 
    5800   -353.51669    577.05099 
    5900   -352.95502    508.09235 
    6000   -352.91247    502.84375 
    6100   -353.56921    583.49052 
    6200   -353.54542    580.56842 
    6300   -352.71231    478.27398 
    6400   -352.82473    492.10197 
    6500   -353.55892    582.23089 
    6600   -353.37745    559.93256 
    6700   -352.33005    431.36024 
    6800   -353.54947    581.05276 
    6900   -353.33475    554.70918 
    7000   -352.86146    496.59049 
    7100   -352.63928    469.33888 
    7200   -353.28514    548.61822 
    7300   -352.69802    476.54328 
    7400   -352.84069     494.0539 
    7500   -353.22136    540.80119 
    7600    -353.3087    551.51288 
    7700   -353.24505    543.68281 
    7800   -353.44325    568.03149 
    7900   -353.18411    536.21262 
    8000   -352.73012    480.47549 
    8100   -352.51975    454.63703 
    8200   -353.39512    562.09853 
    8300   -353.15038    532.06671 
    8400    -352.9376    505.95101 
    8500   -352.68017    474.34024 
    8600    -353.0504    519.78986 
    8700   -352.97939     511.0812 
    8800   -353.32766    553.83344 
    8900   -352.83093    492.85863 
    9000    -352.7538    483.38923 
    9100   -353.20219    538.41187 
    9200   -352.63338    468.59604 
    9300   -352.87695    498.51396 
    9400   -353.48612    573.27463 
    9500   -353.06615    521.72129 
    9600   -352.66712     472.7373 
    9700   -351.66221    545.39519 
    9800   -351.81345     563.6973 
    9900   -351.45228    519.35834 
   10000   -352.90828    501.97788 
   10100   -353.18136    535.50326 
   10200   -353.51773    576.80882 
   10300   -353.40334    562.75949 
   10400   -352.51357    453.54098 
   10500   -352.91126    502.34408 
   10600   -353.40255    562.67384 
   10700   -353.43099    566.16741 
   10800   -353.50297    574.99495 
   10900   -353.43162    566.23275 
   11000   -352.95994     508.3374 
   11100   -353.22207    540.50569 
   11200   -352.89614    500.50578 
   11300   -353.27018    546.40741 
   11400     -353.062    520.84077 
   11500   -353.00547    513.90574 
   11600   -353.35716     557.0922 
   11700   -353.50583    575.33473 
   11800   -351.21443    490.45627 
   11900   -352.93636    506.03119 
   12000   -351.22776    492.53384 
   12100   -352.74467    482.66613 
   12200   -353.20277    538.88298 
   12300   -353.11545    528.19137 
   12400   -352.86843    497.86789 
   12500   -353.08991    525.04088 
   12600   -351.69936    550.43528 
   12700    -352.9021    501.80746 
   12800   -352.81621    491.24937 
   12900   -352.84623    494.93957 
   13000   -352.84428    494.84884 
   13100   -352.92088    504.24805 
   13200   -353.01122    515.32222 
   13300   -352.84312    494.69445 
   13400   -352.54105    457.61527 
   13500   -353.09432    525.53408 
   13600   -353.17573    535.68831 
   13700   -353.31175    552.38779 
   13800   -353.29588    550.43351 
   13900    -353.1138     528.0779 
   14000   -352.74773    483.14017 
   14100   -352.99204    513.12971 
   14200   -353.41126    564.59393 
   14300   -351.20584    489.95051 
   14400   -353.07465    523.27987 
   14500   -353.00942    515.28519 
   14600   -352.73086    481.09193 
   14700   -353.07526    523.33888 
   14800   -351.29929     501.6926 
   14900   -353.08298     524.6843 
   15000   -353.17699    536.20812 
   15100   -353.73816    605.10165 
   15200   -353.33673    555.83258 
   15300   -353.19598    538.53349 
   15400   -353.74633    606.07775 
   15500    -353.1283    530.24194 
   15600   -351.11051    478.71619 
   15700    -352.8174    491.92182 
   15800   -353.10882    527.70332 
   15900   -352.92866    505.60302 
   16000   -352.78838    488.37386 
   16100   -350.83633    445.02515 
   16200   -352.97285    511.34065 
   16300   -352.99081    513.54878 
   16400   -352.72291    480.65349 
   16500   -353.09332    526.11391 
   16600    -353.1401    531.88867 
   16700    -353.5255    579.18892 
   16800   -353.16887    535.40164 
   16900   -352.78761    488.59864 
   17000   -352.77338    486.85863 
   17100    -352.8861    500.69456 
   17200   -353.02205    517.12989 
   17300   -352.86517    497.87026 
   17400   -353.11428    528.45771 
   17500   -353.04013    519.36744 
   17600   -352.63942    470.15831 
   17700   -350.93985     457.6965 
   17800   -351.59093    537.62843 
   17900   -353.07118    522.99825 
   18000   -352.83068    493.47697 
   18100   -353.34071    556.08015 
   18200   -351.53737    530.79643 
   18300   -352.97546    510.83657 
   18400   -351.05969    471.44183 
   18500   -352.73091    480.47556 
   18600   -353.36991    558.92057 
   18700   -351.22796    492.32022 
   18800   -353.16583    534.02222 
   18900   -352.88811    499.91761 
   19000   -352.64233    469.74783 
   19100   -352.92631    504.60559 
   19200   -353.05079    519.88559 
   19300   -352.88533    499.59018 
   19400   -352.71609    478.80892 
   19500   -352.90366    501.83142 
   19600   -353.43091    566.56307 
   19700   -353.51465     576.8502 
   19800   -352.80548    489.79174 
   19900    -353.2463    543.88758 
   20000   -353.04568    519.27836 
   20100   -353.04273     518.9166 
   20200   -352.98378    511.66292 
   20300   -350.96711    460.40782 
   20400    -352.9653    509.74536 
   20500   -353.27656    547.94022 
   20600   -353.19558    537.99144 
   20700   -352.82466    492.47398 
   20800   -353.13085     530.0517 
   20900   -352.62417    467.84947 
   21000   -352.91899    504.03012 
   21100    -353.0401    518.92397 
   21200    -353.1692     534.7727 
   21300     -352.869    497.91089 
   21400   -352.87069    498.13967 
   21500   -353.46425    570.99616 
   21600   -352.78179    487.22372 
   21700   -352.95962    509.02775 
   21800   -352.63316    468.96346 
   21900   -351.51852    528.08439 
   22000   -353.08167    524.11994 
   22100   -353.01095    515.43887 
   22200   -353.31686    552.98025 
   22300   -352.56501    460.69499 
   22400    -352.5931    464.13686 
   22500   -352.96275    509.50799 
   22600   -352.86879    497.97991 
   22700   -352.71308    478.86408 
   22800   -352.97008     510.4186 
   22900   -352.99541    513.54006 
   23000   -352.96321     509.5809 
   23100   -352.72212     479.9835 
   23200   -353.44663    568.90406 
   23300    -352.8297    493.18038 
   23400   -352.41259    441.98475 
   23500    -353.2139     540.3394 
   23600   -353.39341    562.37845 
   23700   -352.87618     498.8998 
   23800   -352.96879    510.25669 
   23900    -352.9328    505.83044 
   24000   -352.90661    502.63317 
   24100   -353.62957    591.37657 
   24200   -353.51925    577.83533 
   24300   -353.02635    517.32981 
   24400   -353.58918       586.41 
   24500    -353.0261     517.2948 
   24600   -353.02547    517.21604 
   24700   -352.69396    476.52112 
   24800   -352.79989    489.51536 
   24900   -353.26629    546.76791 
   25000   -351.51505    527.98353 
   25100   -353.11394    528.07364 
   25200   -352.98608    512.38342 
   25300   -353.54163    580.57084 
   25400   -352.90773    502.75594 
   25500   -352.80725     490.4092 
   25600     -352.806    490.26392 
   25700   -352.98866    512.69402 
   25800   -352.76476     485.2087 
   25900   -352.81758    491.67916 
   26000   -352.95892    509.04717 
   26100   -351.57361    534.99626 
   26200   -353.05238     520.3435 
   26300   -352.24402    421.12545 
   26400    -352.5513    458.84037 
   26500   -352.59615    464.35884 
   26600   -353.34982    556.86175 
   26700    -352.7767    486.51148 
   26800   -353.02862     517.4304 
   26900   -352.56668    460.75086 
   27000   -352.80475    489.96862 
   27100   -353.06993    522.50425 
   27200   -352.63324    468.89896 
   27300   -352.18653    414.07973 
   27400   -352.73324    481.17256 
   27500   -353.05342    520.46862 
   27600    -351.1269    479.92903 
   27700   -352.93759    505.80408 
   27800   -353.20371    538.46884 
   27900   -351.22943    492.06292 
   28000   -352.97027    510.24418 
   28100   -353.31241    552.24246 
   28200   -353.31252    552.25158 
   28300    -352.5885    463.36845 
   28400   -353.03283    517.92174 
   28500   -353.49863    575.10344 
   28600   -352.82381    492.27266 
   28700   -352.98759    512.36825 
   28800   -353.08996    524.93559 
   28900   -353.01242    515.41825 
   29000    -352.8594     496.6368 
   29100   -353.80737    612.99655 
   29200   -351.30136    501.15211 
   29300   -352.63292    468.32979 
   29400   -352.66998    472.86408 
   29500   -352.72767    479.96514 
   29600   -353.22663    541.20518 
   29700   -352.19025    413.99423 
   29800   -353.09463    525.00167 
   29900   -353.65206    593.42751 
   30000   -353.21077    539.27465 
   30100   -353.17996    535.46366 
   30200     -352.811    490.18826 
   30300   -352.75744    483.61259 
   30400   -353.07231    522.25146 
   30500   -353.05585    520.24639 
   30600   -353.17394    534.74824 
   30700   -353.21115    539.31506 
   30800   -353.24646    543.63742 
   30900   -352.64502     469.8058 
   31000   -352.56207    459.62552 
   31100    -353.2703    546.55103 
   31200   -353.20552    538.61597 
   31300   -353.31893    552.53157 
   31400   -353.30074    550.30746 
   31500   -353.50362    575.21993 
   31600   -353.12264     528.4516 
   31700    -353.0099    514.60643 
   31800   -353.01975    515.80644 
   31900   -352.75255    483.01909 
   32000   -353.42814    565.93495 
   32100   -353.23809    542.62378 
   32200   -352.91478    502.94172 
   32300   -353.42498    565.59915 
   32400   -353.09343    524.90821 
   32500   -353.22441    540.98843 
   32600     -353.195    537.36937 
   32700   -352.59772    464.04181 
   32800   -350.66982    423.33659 
   32900   -353.00655    513.91953 
   33000    -352.9669    509.12727 
   33100   -353.79051    610.21022 
   33200   -353.00594    513.72613 
   33300   -352.58716    462.61124 
   33400   -351.40851     513.5284 
   33500   -352.70328     476.5913 
   33600   -352.80577    489.14504 
   33700   -352.52081    454.16553 
   33800   -352.75806    483.31313 
   33900   -353.27406    546.64513 
   34000   -352.58946     462.6176 
   34100   -352.87423    497.54693 
   34200   -353.23077    541.31973 
   34300   -353.12471    528.30821 
   34400   -353.64003    591.54226 
   34500   -352.51463    453.45304 
   34600   -353.43884    566.88924 
   34700   -353.23776    542.21775 
   34800   -353.00845    513.95343 
   34900   -353.14391     530.5796 
   35000   -352.72582    479.26254 
   35100    -350.9539    457.93608 
   35200   -353.08113    523.05446 
   35300   -353.38533    560.39695 
   35400   -352.50815    452.73598 
   35500   -352.72705    479.59877 
   35600   -353.04826    519.01299 
   35700   -352.82204    491.26116 
   35800   -352.70229    476.54752 
   35900   -352.79712     488.1922 
   36000   -353.13496    529.67006 
   36100   -353.38611    560.48794 
   36200   -353.00498    513.71458 
   36300   -353.62168    589.40368 
   36400   -352.70502    476.89341 
   36500   -353.03837    517.79573 
   36600   -352.93626    505.28312 
   36700   -353.13277    529.40021 
   36800   -352.97291    509.76681 
   36900   -353.10442    525.91245 
   37000   -353.47719    571.66571 
   37100   -353.49238    573.52747 
   37200   -352.93973    505.69539 
   37300   -353.44593    567.82227 
   37400   -353.27698    547.09006 
   37500   -352.55349    458.29175 
   37600    -353.2107    538.94923 
   37700   -353.41208     563.6937 
   37800    -353.1477     531.2512 
   37900   -353.33157    553.79623 
   38000   -352.76673    484.45769 
   38100   -352.90326    501.21206 
   38200   -352.87551    497.81718 
   38300   -352.83181    492.45061 
   38400   -352.99274    512.19327 
   38500   -352.76731    484.53278 
   38600    -352.9502    506.97433 
   38700   -352.59694    463.62451 
   38800   -353.32678    553.21359 
   38900   -353.08574    523.63513 
   39000   -353.19553    537.08613 
   39100   -352.79947    488.46924 
   39200   -353.07789      522.669 
   39300   -353.25501    544.41092 
   39400   -352.78694    486.95045 
   39500   -353.11826    527.60107 
   39600   -352.96792    509.16599 
   39700   -353.04552    518.69883 
   39800   -351.21882    490.82234 
   39900   -351.03089    467.76081 
   40000   -352.92946    504.71907 
   40100   -353.51822    576.98421 
   40200   -351.48894    524.12384 
   40300   -352.96398     509.1094 
   40400   -353.64827    593.11436 
   40500   -352.81809    491.20863 
   40600   -352.76393    484.63881 
   40700    -353.2836    548.43543 
   40800    -353.4293    566.31656 
   40900   -353.40722    563.60452 
   41000   -352.49726    451.90303 
   41100   -352.86204    496.60433 
   41200   -352.98618    511.70474 
   41300   -353.16736    533.92417 
   41400   -352.83193    492.75865 
   41500   -352.92607    504.32455 
   41600   -353.58167    584.79309 
   41700   -352.78242    486.69573 
   41800   -353.14226     530.8594 
   41900   -352.96471     509.0623 
   42000   -352.82863    492.38213 
   42100    -353.1034    526.09664 
   42200   -352.74326    481.86692 
   42300   -352.82811    492.27725 
   42400   -353.24324    543.24715 
   42500    -353.5016    574.96957 
   42600   -353.14439    531.10993 
   42700    -352.8964    500.66129 
   42800   -352.90715    501.99471 
   42900   -353.14475    531.06618 
   43000   -353.21518    539.70041 
   43100   -350.80812    440.20834 
   43200   -353.07066    521.95384 
   43300    -351.6887    548.34523 
   43400   -353.21112    539.27667 
   43500     -353.207    538.75696 
   43600   -353.22582    541.05465 
   43700   -352.92096    503.65812 
   43800   -353.36827    558.59329 
   43900   -352.80711    489.70633 
   44000   -352.80872    489.90392 
   44100   -353.19601    537.44458 
   44200   -353.39129    561.42459 
   44300   -353.76288    607.02961 
   44400   -352.87232    497.71341 
   44500   -352.79914    488.72497 
   44600   -353.04131    518.44065 
   44700   -353.12011    528.12531 
   44800   -353.11902    527.99869 
   44900   -353.31743    552.34435 
   45000   -350.80169    439.62433 
   45100   -352.70895    477.52951 
   45200   -352.84343    494.05769 
   45300   -351.73644    554.24163 
   45400   -352.85938     496.0707 
   45500   -353.00987    514.47273 
   45600   -353.92437    626.72808 
   45700   -351.68922    548.23027 
   45800    -352.5562    458.75296 
   45900    -353.6327    590.87726 
   46000   -353.22985    541.21125 
   46100   -353.09991    525.27523 
   46200   -353.44259     567.3248 
   46300   -353.22686    540.85529 
   46400   -352.92395    503.67382 
   46500   -350.52956     405.7666 
   46600   -352.99032    511.75523 
   46700   -353.54121     579.3969 
   46800   -353.38764    560.53405 
   46900   -352.70366    476.57681 
   47000   -353.40934    563.19961 
   47100   -353.03086    516.73116 
   47200   -353.02517    516.03802 
   47300    -353.4053    562.69446 
   47400   -351.42923    516.36204 
   47500   -353.12756     528.5504 
   47600   -353.49447    573.58716 
   47700   -352.89772    500.34351 
   47800   -352.96244    508.27159 
   47900   -353.51002    575.48725 
   48000   -351.33319    504.27131 
   48100   -352.86987    496.86698 
   48200   -353.29355     548.8691 
   48300   -352.70855    477.06682 
   48400   -353.45067    568.15698 
   48500   -353.01187    514.29996 
   48600   -353.15991    532.48092 
   48700   -352.59526    463.14563 
   48800   -352.79252    487.36422 
   48900   -352.59088    462.61653 
   49000   -352.73352    480.12273 
   49100   -353.12805    528.55723 
   49200   -352.56049    458.88327 
   49300   -352.52278    454.25483 
   49400   -352.80877    489.36841 
   49500   -353.44317    567.24255 
   49600   -352.30074    427.03388 
   49700   -351.33227    504.53661 
   49800    -353.4293    566.03411 
   49900   -353.17627    534.98756 
   50000   -352.96811    509.39816 
   50100   -352.84959    494.85881 
   50200   -353.61883    589.29641 
   50300   -353.08485    523.74982 
   50400   -352.89859    500.87024 
   50500    -352.7336    480.62164 
   50600   -353.04054    518.29124 
   50700   -352.79424     488.0588 
   50800   -352.76426    484.39214 
   50900   -353.26666    546.04573 
   51000   -352.64955    470.27836 
   51100   -352.39333    438.85332 
   51200   -353.28531      548.347 
   51300   -351.09699    476.59133 
   51400   -352.69142    476.33368 
   51500   -353.31978    553.46706 
   51600   -352.71968    479.64728 
   51700   -352.91261    503.31879 
   51800   -353.40172    563.35441 
   51900   -353.32958    554.50579 
   52000     -352.847    495.27435 
   52100   -350.91431    454.30279 
   52200   -352.77757    487.03032 
   52300    -351.6481    544.44426 
   52400   -353.29493    550.43368 
   52500   -353.05271    520.69022 
   52600   -353.16145    534.04451 
   52700   -353.18366    536.77706 
   52800   -352.79303    488.82326 
   52900   -353.00613    514.97411 
   53000   -351.72463    553.62886 
   53100   -351.46935    522.43034 
   53200   -352.90507     502.4408 
   53300   -352.88534    500.03877 
   53400   -353.69991    600.02352 
   53500   -353.06562    522.16299 
   53600   -352.78704    487.95033 
   53700    -353.3243    553.90797 
   53800   -353.56584    583.55987 
   53900   -353.08459    524.47574 
   54000   -352.80172    489.75722 
   54100   -353.33323    555.01397 
   54200   -353.15461    533.08444 
   54300   -353.04538    519.67905 
   54400   -352.88865    500.44092 
   54500   -353.11697    528.41497 
   54600   -350.64723    421.43822 
   54700   -351.31923    503.95851 
   54800   -352.85481    496.54296 
   54900   -353.42801    566.90263 
   55000   -353.12907    530.22921 
   55100   -353.20703    539.79884 
   55200   -352.97925    511.82315 
   55300   -352.66635       473.42 
   55400    -352.8883    500.66958 
   55500   -352.95332    508.65497 
   55600   -353.14499    532.17306 
   55700   -352.96639    510.26229 
   55800   -352.83998     494.7416 
   55900   -352.85122    496.10829 
   56000   -353.09076    525.52191 
   56100   -353.01129    515.77402 
   56200   -352.87437    498.94857 
   56300   -352.89769    501.81809 
   56400    -352.6347    469.55789 
   56500   -353.13597    531.06567 
   56600   -352.65729    472.30256 
   56700   -353.08501    524.81109 
   56800   -351.32218    504.55856 
   56900     -352.584    463.82942 
   57000   -352.66861    474.19435 
   57100   -353.11485    528.98634 
   57200   -353.37766    561.25417 
   57300   -352.93154    506.48444 
   57400   -352.90601    503.32875 
   57500   -352.77546    487.32443 
   57600    -353.0964    526.72867 
   57700   -352.80504    490.96048 
   57800   -352.98652    513.23292 
   57900   -352.82248    493.10476 
   58000   -352.58639    464.12258 
   58100   -353.42508    567.06204 
   58200   -352.56197    461.12743 
   58300   -352.91577    504.53901 
   58400   -352.83313    494.40475 
   58500   -352.86266    498.03249 
   58600   -353.16439    535.05333 
   58700   -352.89228    501.66329 
   58800   -353.25178    545.81549 
   58900   -353.08585    525.43548 
   59000   -352.65763    472.85913 
   59100   -353.30551    552.40073 
   59200   -353.44426    569.43539 
   59300   -352.37723    438.44141 
   59400   -352.87928    500.07303 
   59500   -353.54735    582.09404 
   59600   -353.09627    526.71738 
   59700   -352.75414    484.70505 
   59800   -353.03986    519.78364 
   59900    -353.3762    561.09068 
   60000   -353.09036     526.0018 
   60100   -352.82948    493.97648 
   60200   -353.21515    541.31673 
   60300   -353.04692    520.66418 
   60400   -353.20239    539.74544 
   60500   -353.32571    554.88529 
   60600   -353.29947     551.6618 
   60700   -353.07835    524.43017 
   60800   -353.45503    570.66776 
   60900   -352.86176    497.84134 
   61000   -352.98224    512.63636 
   61100    -352.6806    475.61034 
   61200   -353.05555    521.85634 
   61300   -352.63424    470.14048 
   61400   -353.02538    518.16798 
   61500   -353.25059    545.89146 
   61600   -352.61585     467.9709 
   61700   -352.86703    498.79578 
   61800   -353.02902     518.6829 
   61900   -351.18293    487.98104 
   62000   -350.91938    455.62139 
   62100    -352.6201    468.29474 
   62200   -353.13592    531.60694 
   62300   -352.52834    457.02172 
   62400   -352.61232    467.34029 
   62500   -353.90275    625.74338 
   62600   -353.31245    553.28361 
   62700   -353.06933    523.42981 
   62800   -353.25387     546.0938 
   62900   -351.29374    501.40255 
   63000   -351.23505    494.17965 
   63100   -353.14055    532.24097 
   63200   -352.80465    491.02178 
   63300   -353.12369    530.18953 
   63400   -353.08115    524.97105 
   63500   -352.86069    497.91742 
   63600   -353.23671     544.0503 
   63700   -353.25922    546.82693 
   63800   -352.91735    504.85749 
   63900   -352.98272    512.87499 
   64000   -353.30118     551.9798 
   64100   -351.12427    480.74021 
   64200   -352.77317    486.64723 
   64300   -352.51497    454.96685 
   64400   -353.24206    544.21121 
   64500   -353.02016    516.97082 
   64600   -352.73445     481.8961 
   64700   -353.15262    533.23036 
   64800   -352.80172    490.16489 
   64900   -352.98714    512.91218 
   65000   -352.65442    472.06551 
   65100   -352.94347    507.54887 
   65200   -353.23858    543.76365 
   65300   -352.81885    492.25642 
   65400    -353.2974    550.98112 
   65500   -353.36234    558.95815 
   65600   -353.09109     525.6796 
   65700   -353.47247    572.47937 
   65800   -353.07074    523.15587 
   65900   -352.85115    496.20909 
   66000   -353.17867    536.42716 
   66100   -353.05429    521.16904 
   66200   -353.15179     533.1209 
   66300   -353.26179    546.62299 
   66400   -352.82859    493.46091 
   66500   -353.07609     523.8368 
   66600   -351.83715    567.94669 
   66700   -352.81434    492.01222 
   66800   -352.90063    502.59844 
   66900   -352.74372    483.33131 
   67000   -352.80482    490.84081 
   67100   -353.51124     577.5479 
   67200   -353.29359    550.83661 
   67300   -352.54875    459.38777 
   67400   -352.74379    483.32794 
   67500   -353.24543    544.92811 
   67600    -353.6137    590.13479 
   67700   -352.75868    485.16068 
   67800   -352.28482    426.99448 
   67900    -353.3594    558.92711 
   68000    -353.5691    584.66925 
   68100   -352.87858    499.88291 
   68200   -352.75605    484.83492 
   68300   -353.30841    552.65944 
   68400   -353.65406    595.07901 
   68500   -352.64014    470.63027 
   68600   -353.09726    526.72192 
   68700   -351.35085    508.55592 
   68800   -352.95219     508.6916 
   68900   -353.00688    515.39515 
   69000    -351.4587    521.56377 
   69100   -353.82241    615.56314 
   69200   -353.08905    525.53185 
   69300   -352.52668    456.29458 
   69400   -352.98008    511.95769 
   69500   -352.95935    509.43278 
   69600   -352.76947    486.10346 
   69700   -352.79047    488.67945 
   69800   -352.70405    478.06607 
   69900   -352.86899    498.32025 
   70000   -353.37625    560.59522 
   70100    -353.2305    542.70811 
   70200   -352.63272    469.32222 
   70300   -353.42839    566.92188 
   70400   -353.59519    587.40169 
   70500   -353.16953    535.15184 
   70600   -353.21249    540.41414 
   70700   -353.16972    535.17148 
   70800    -353.4064    564.21778 
   70900    -352.7439    482.89366 
   71000   -353.29003    549.92491 
   71100   -353.24832    544.83137 
   71200   -353.52295    578.53316 
   71300    -352.9065    502.84268 
   71400   -352.34068     433.4041 
   71500   -353.54861    581.69304 
   71600   -353.79354    611.75145 
   71700   -352.43799    445.33589 
   71800   -353.24662    543.95295 
   71900   -353.33876    555.29768 
   72000   -353.20769    539.20618 
   72100    -353.1276    529.34827 
   72200   -353.09679    525.58542 
   72300   -353.44436    568.24102 
   72400   -352.87956    498.91277 
   72500   -353.23772    542.88762 
   72600   -353.28385    548.54882 
   72700   -353.22827    541.71705 
   72800   -352.95454    508.11598 
   72900   -353.42073    565.33695 
   73000   -353.80918    613.02625 
   73100   -353.32627    553.75025 
   73200   -352.86593    497.22865 
   73300   -352.82173    491.80685 
   73400     -353.468    571.16476 
   73500    -353.0628    521.42511 
   73600   -352.25528    422.26233 
   73700   -352.65441    471.27539 
   73800   -353.23909    543.05967 
   73900   -352.96838    509.81019 
   74000   -353.32431    553.49143 
   74100   -353.02883    517.24228 
   74200   -352.90072     501.5046 
   74300    -352.8735    498.14826 
   74400   -352.24957     421.5824 
   74500   -353.14659    531.69072 
   74600   -352.93188    505.32342 
   74700   -352.70674    477.69806 
   74800   -352.86937    497.65732 
   74900   -351.12546    479.22411 
   75000   -353.10635    526.31574 
   75100   -352.88978    499.73539 
   75200   -353.01447    515.02706 
   75300   -353.23742    542.40525 
   75400   -351.82278    564.54592 
   75500   -351.01537    465.43849 
   75600   -353.28522    547.68329 
   75700   -353.03113    516.52075 
   75800   -353.12757    528.35629 
   75900   -351.14199    480.90552 
   76000   -353.18948    536.49365 
   76100     -352.778    486.00416 
   76200   -353.18213    535.59554 
   76300   -353.26341     545.5627 
   76400   -353.50949    575.79088 
   76500   -353.57888    584.29154 
   76600    -352.8362    493.12141 
   76700   -353.36945    558.59482 
   76800   -353.76509     607.1597 
   76900   -353.08036    523.10002 
   77000   -352.98868    511.83026 
   77100   -352.91921    503.33621 
   77200   -353.19446    537.13882 
   77300   -352.67702    473.60873 
   77400   -352.86305    496.46121 
   77500   -353.85148    617.78711 
   77600   -352.95128    507.29313 
   77700   -352.66941    472.68737 
   77800   -353.36922    558.59898 
   77900   -353.05062    519.49441 
   78000   -353.01784    515.46011 
   78100   -353.21361    539.47607 
   78200    -350.8687    447.65761 
   78300   -353.22058     540.4842 
   78400   -352.93374    505.28022 
   78500   -352.64796    470.19183 
   78600   -352.85393    495.55882 
   78700   -353.18976    536.79391 
   78800   -351.62201    540.60126 
   78900   -352.68151    474.66436 
   79000   -352.68382     474.9341 
   79100   -352.78891     487.3028 
   79200   -353.05844    520.38244 
   79300   -352.97649    510.31552 
   79400   -353.02829    516.65869 
   79500   -351.01929    466.35682 
   79600   -351.08892    474.90996 
   79700   -353.09645    525.74735 
   79800   -353.64001    592.47793 
   79900   -352.96169    509.20131 
   80000   -350.89307    451.08515 
   80100   -352.61814    466.58676 
   80200   -353.27822    547.62162 
   80300   -353.47946    572.57491 
   80400   -352.86152    496.71887 
   80500   -353.15708    532.98742 
   80600   -353.10577    526.71687 
   80700   -353.45174    569.17191 
   80800    -352.7917    488.13193 
   80900   -352.86968    497.71989 
   81000   -353.28566    548.77963 
   81100   -352.72803    480.32425 
   81200   -353.04079    518.73624 
   81300   -353.57138    583.86398 
   81400   -352.83512    493.48637 
   81500   -352.55927    459.60341 
   81600   -352.98191    511.49456 
   81700   -352.97224    510.32041 
   81800   -353.07377     522.7728 
   81900   -353.07407    522.81244 
   82000   -352.72621    480.11607 
   82100   -353.18011    535.82324 
   82200   -353.31989    552.97963 
   82300   -353.18555    536.49899 
   82400   -353.49717    574.73305 
   82500   -352.96984    510.01375 
   82600   -352.84107     494.2125 
   82700   -352.97383    510.50229 
   82800   -353.26923    546.77393 
   82900   -353.11743    528.13492 
   83000   -352.82194    491.85971 
   83100   -350.89101    450.54807 
   83200   -353.16491    533.53545 
   83300   -352.96366      508.844 
   83400    -353.4041    562.91091 
   83500   -353.36319      557.856 
   83600   -352.58786    462.68973 
   83700   -353.22484    540.89421 
   83800   -353.41558    564.30422 
   83900   -352.87498     497.9309 
   84000   -352.94363    506.34738 
   84100   -353.16418    533.44468 
   84200    -353.0711    522.01649 
   84300   -352.78457    486.83644 
   84400   -353.14465     531.0477 
   84500   -353.25374    544.44209 
   84600   -352.67279    473.13021 
   84700   -353.00984    514.48921 
   84800   -353.22028    540.33763 
   84900   -353.53208    578.62263 
   85000   -352.85257    495.19506 
   85100   -352.76078    483.92105 
   85200   -353.23799     542.5236 
   85300   -353.56313    582.42669 
   85400   -353.21218    539.33818 
   85500   -352.86396     496.5426 
   85600   -353.91998    626.17168 
   85700   -351.75861    556.80368 
   85800   -353.52922    577.85944 
   85900   -352.98006    510.63002 
   86000   -352.74348    481.59828 
   86100   -353.30889    550.99324 
   86200   -351.41227    514.27392 
   86300   -353.02263    516.02476 
   86400   -352.90919    502.09063 
   86500   -352.70974    477.62317 
   86600   -350.76894     435.5429 
   86700   -350.97833    461.23573 
   86800   -353.13533    529.46801 
   86900   -352.65533    470.55874 
   87000   -352.39388    438.45781 
   87100   -352.74859    482.00686 
   87200   -352.84093    493.41295 
   87300   -352.18587     412.9989 
   87400   -352.70712     476.9737 
   87500   -353.13667    529.72473 
   87600   -353.40541     562.7177 
   87700   -352.87739    497.89383 
   87800   -352.93572    505.05807 
   87900   -353.84627    616.82766 
   88000   -353.48607    572.61841 
   88100   -353.13323     529.3001 
   88200   -353.36873    558.20733 
   88300   -353.55686    581.30002 
   88400   -352.91563     502.5982 
   88500   -353.00718    513.82267 
   88600   -353.05623    519.84398 
   88700   -353.14459    530.69879 
   88800   -352.71767    478.28884 
   88900   -351.07628    473.24732 
   89000   -352.96459    509.17019 
   89100    -353.2965    549.91564 
   89200   -352.97881    510.91182 
   89300   -352.95048    507.42984 
   89400   -353.07985    523.32031 
   89500    -352.8258    492.13304 
   89600   -353.14247    530.98886 
   89700   -353.01834    515.75418 
   89800   -352.67176    473.22412 
   89900   -353.07066    522.18896 
   90000   -352.69018     475.4842 
   90100   -352.74873    482.67065 
   90200   -353.45529    569.41262 
   90300   -353.20316    538.47788 
   90400   -353.38514    560.78772 
   90500   -352.85449    495.64791 
   90600   -353.02013    516.00034 
   90700   -353.39309    561.78198 
   90800    -353.3879    561.12568 
   90900   -353.61238    588.69595 
   91000   -353.24552     543.6691 
   91100   -352.78756    487.43627 
   91200   -349.35366    457.81121 
   91300   -352.98339    510.99556 
   91400   -353.03908    517.84149 
   91500   -352.89747     500.4469 
   91600   -352.93338     504.8383 
   91700   -352.83657     492.9805 
   91800   -352.92408    503.72905 
   91900   -352.96703    508.99381 
   92000   -352.68578    474.46857 
   92100   -352.89108    499.66645 
   92200   -352.67379    472.99275 
   92300    -353.1254    528.41941 
   92400   -352.65632    470.85601 
   92500   -353.22619    540.79996 
   92600   -353.23485    541.85226 
   92700   -351.35734    507.24806 
   92800   -352.67274    472.50657 
   92900   -353.46897    570.24087 
   93000   -353.17854    534.61721 
   93100   -353.16618    533.09067 
   93200   -351.12983    479.09233 
   93300   -352.58927    462.25696 
   93400   -353.44397     567.1675 
   93500   -353.49421    573.33585 
   93600   -352.52376    454.20175 
   93700   -352.87351    497.13063 
   93800   -353.24571    542.82593 
   93900   -352.90714    501.26738 
   94000   -352.77996    485.65217 
   94100   -351.46241    519.75991 
   94200   -352.82266    490.75466 
   94300   -352.89544    499.68734 
   94400   -353.16009    532.16191 
   94500   -353.21694    539.13275 
   94600   -352.81266    489.52698 
   94700   -352.97835      509.879 
   94800   -353.71512    600.29699 
   94900   -352.90894    501.35233 
   95000   -353.49363     573.1248 
   95100   -353.09788    524.88707 
   95200   -353.02206    515.58242 
   95300   -352.94315    505.91064 
   95400   -352.98218    510.68031 
   95500   -353.16146    532.69257 
   95600   -353.06729    521.14893 
   95700     -352.835    492.62679 
   95800   -352.69364    475.26583 
   95900   -351.28865    498.84877 
   96000   -353.49873    574.13023 
   96100   -353.05548    519.71565 
   96200   -353.11613    527.15328 
   96300   -352.79547    487.90256 
   96400   -352.51013    452.88116 
   96500    -352.9755    509.99033 
   96600   -352.93349    504.84751 
   96700   -352.88252    498.59066 
   96800   -352.87568    497.74382 
   96900   -351.35667    506.87973 
   97000   -353.38493    559.98433 
   97100   -351.05946    470.74194 
   97200   -352.97319    509.38707 
   97300   -352.58965    462.30472 
   97400   -352.72753    479.24868 
   97500   -353.49101    572.98114 
   97600   -353.30648    550.32787 
   97700   -352.77378    484.92719 
   97800   -352.76532    483.88791 
   97900   -353.47132    570.55933 
   98000   -352.89816    500.21863 
   98100   -353.07567    521.97523 
   98200   -353.06158    520.23788 
   98300   -353.04171    517.83165 
   98400    -353.7273     601.9734 
   98500   -353.14653    530.68146 
   98600   -352.41851    441.30909 
   98700   -352.94305    505.68462 
   98800   -352.95483    507.15811 
   98900    -352.8701    496.75928 
   99000     -353.772    607.44116 
   99100   -352.97919    510.13851 
   99200   -353.00658    513.54383 
   99300   -352.95992     507.8132 
   99400   -352.66835    472.03271 
   99500   -353.12865    528.53055 
   99600   -352.91519    502.33758 
   99700   -353.21212    538.66553 
   99800   -353.16943     533.4423 
   99900   -352.93023    504.08119 
  100000   -352.92371    503.26031 
  100100   -352.75062    482.00989 
  100200   -352.98418      510.682 
  100300   -353.06453    520.55077 
  100400   -353.08003    522.45433 
  100500    -353.0355    516.98804 
  100600   -352.98639    510.96045 
  100700   -352.67863    473.19574 
  100800   -353.09762    524.61342 
  100900   -353.38503    559.89822 
  101000   -352.72979    479.48064 
  101100   -352.83241    492.06649 
  101200   -353.48298    571.92884 
  101300   -353.72838    602.04977 
  101400   -353.43515    566.05159 
  101500   -353.19549    536.63506 
  101600   -353.22641    540.42072 
  101700   -353.07758    522.16307 
  101800   -352.94011    505.29713 
  101900   -352.97925    510.09943 
  102000   -352.86197    495.69636 
  102100   -352.57876     460.9235 
  102200   -353.16867     533.3376 
  102300   -353.08756     523.3888 
  102400   -353.32431    552.43059 
  102500    -352.7157    477.72907 
  102600    -353.0088    513.71749 
  102700   -353.73969    603.42901 
  102800    -353.0695    521.16328 
  102900   -352.65632    470.44027 
  103000   -350.83206    442.50005 
  103100   -352.82079    490.36687 
  103200   -352.87393    496.90447 
  103300   -352.74749     481.3897 
  103400   -353.30052     549.2673 
  103500   -352.76856    483.97356 
  103600   -352.99329    511.54102 
  103700   -352.89592    499.59356 
  103800   -352.83434    492.04789 
  103900   -353.45995     568.8375 
  104000   -352.72944    479.16594 
  104100   -352.68656    473.91165 
  104200   -353.95853    630.04795 
  104300   -353.70322    598.71221 
  104400   -352.96674    508.28581 
  104500   -352.73865    480.28093 
  104600   -352.82371    490.72922 
  104700   -353.37047     557.8647 
  104800    -353.2859    547.47122 
  104900   -352.82954    491.44382 
  105000   -351.19842    487.36605 
  105100   -351.65882    543.87376 
  105200   -353.13235    528.25332 
  105300   -352.70875    476.25973 
  105400   -353.54571    578.98323 
  105500   -352.90261    500.05195 
  105600   -353.03461    516.24953 
  105700   -353.59746    585.34716 
  105800   -352.82555    490.59688 
  105900   -352.98121    509.67304 
  106000   -352.69547    474.62566 
  106100   -353.29167    547.81681 
  106200   -352.59262    462.01169 
  106300   -352.88051    497.31984 
  106400   -351.42905    515.18167 
  106500   -353.30949    550.08262 
  106600   -353.26925     545.1396 
  106700   -353.26996    545.22723 
  106800   -353.01397    513.79916 
  106900   -353.04741    517.90583 
  107000   -352.90601    500.55885 
  107100   -353.10547    525.03306 
  107200   -352.61587    464.93253 
  107300   -350.84825      444.074 
  107400   -352.95691    506.71331 
  107500   -352.50755     451.5528 
  107600   -352.34089    431.11041 
  107700   -353.20773    537.50886 
  107800    -353.2646     544.4887 
  107900   -352.67366     471.9488 
  108000   -352.74651     480.9503 
  108100   -353.14748    530.17612 
  108200   -353.63133     589.5615 
  108300   -353.13207    528.29207 
  108400   -352.94746    505.62552 
  108500   -353.23467    540.86778 
  108600   -353.03947    516.91664 
  108700   -352.80206    487.78272 
  108800   -352.89655    499.37065 
  108900   -351.75663    555.31262 
  109000   -353.47746     570.5077 
  109100   -353.23087    540.25294 
  109200   -353.55733    580.32594 
  109300   -353.37699    558.20202 
  109400   -353.13046    527.91735 
  109500   -352.74703    480.84106 
  109600   -353.17161    532.97163 
  109700   -353.55628     580.1903 
  109800   -352.94968    505.73163 
  109900   -352.76365    482.88981 
  110000   -353.13012    527.87028 
  110100    -352.8896    498.36201 
  110200   -351.18001    484.59845 
  110300   -352.71922    477.82503 
  110400   -352.71573    477.39412 
  110500   -353.22289    539.64169 
  110600   -352.66811    471.55926 
  110700   -352.88535    498.22477 
  110800   -352.86349    495.54752 
  110900   -352.54065    455.90971 
  111000   -352.95006    506.13258 
  111100   -352.06369    397.35711 
  111200   -352.60538    463.86048 
  111300   -352.94136    505.10975 
  111400   -353.16427     532.4702 
  111500   -352.94233    505.21688 
  111600   -351.04628     468.8271 
  111700   -352.85208    494.35462 
  111800   -353.15466    531.49326 
  111900   -352.96587    508.32183 
  112000   -352.89004    499.00979 
  112100    -353.2213    539.67767 
  112200   -353.66887    594.62903 
  112300   -353.57188     582.7232 
  112400   -352.86592    496.05045 
  112500   -352.76212    483.30481 
  112600   -353.17569    534.07623 
  112700   -353.33615    553.78374 
  112800   -352.74324    481.01279 
  112900    -353.0182    514.74363 
  113000   -352.83253    491.95809 
  113100   -353.12641    528.02725 
  113200   -353.14965     530.8798 
  113300   -352.96331    508.01498 
  113400   -349.73188    503.62721 
  113500   -352.93227    504.05065 
  113600   -352.67897    472.97139 
  113700   -353.29085    548.06374 
  113800   -352.50962    452.16537 
  113900   -353.07773    521.87053 
  114000   -352.36722    434.69239 
  114100   -352.90309    500.45976 
  114200   -353.45096    567.70762 
  114300   -352.64812     469.1877 
  114400   -353.20055    536.96258 
  114500   -352.33379    430.57269 
  114600   -353.16146    532.18007 
  114700   -353.36806    557.57727 
  114800   -353.27343    545.95295 
  114900   -353.09841    524.46341 
  115000   -352.87058    496.25803 
  115100   -352.96936    508.38835 
  115200   -352.99421    511.44209 
  115300   -352.77183    484.14522 
  115400   -352.97171    508.66727 
  115500   -352.69806    475.09921 
  115600   -352.96381    507.71988 
  115700   -353.05291    518.66048 
  115800   -353.31387     550.6795 
  115900   -351.42186    514.80171 
  116000    -352.9313    503.92056 
  116100   -353.28054    546.78575 
  116200   -352.80108    487.90572 
  116300   -353.40291    561.76894 
  116400   -353.40313    561.80025 
  116500   -351.21264    489.08424 
  116600   -353.37561    558.20606 
  116700   -353.01965    514.52033 
  116800   -352.95398    506.45218 
  116900   -352.78061    485.16919 
  117000    -352.7994    487.48849 
  117100   -353.03868    516.85351 
  117200   -352.38872    437.07378 
  117300   -353.04186    517.23726 
  117400   -353.16749    532.66025 
  117500   -352.54789    456.60103 
  117600   -352.61251    464.53558 
  117700   -352.90796    500.80777 
  117800   -353.38452    559.30459 
  117900   -352.91373    501.51618 
  118000   -352.63817    467.67929 
  118100   -353.09427    523.67468 
  118200   -352.40016    438.48701 
  118300   -352.66242    470.65276 
  118400   -353.08026    521.94493 
  118500   -353.33336     553.0329 
  118600   -352.79066    486.42097 
  118700   -352.99043    510.92311 
  118800   -353.00486    512.69974 
  118900   -352.87209     496.4084 
  119000   -353.17882    534.05066 
  119100   -352.37814    435.77388 
  119200   -353.30381    549.40756 
  119300   -353.61821    588.00427 
  119400   -352.68407    473.33009 
  119500    -352.8349    491.84154 
  119600   -353.40073    561.29725 
  119700   -352.82958    491.19032 
  119800   -352.28027    423.59577 
  119900   -352.65454    469.49365 
  120000   -352.76452    483.01155 
  120100   -353.14754    530.02244 
  120200   -353.04761    517.73171 
  120300   -350.82069     440.4824 
  120400   -353.13084    527.93453 
  120500   -353.53119    577.06815 
  120600   -353.16196    531.74103 
  120700     -353.484    571.28781 
  120800   -353.47013    569.58081 
  120900   -352.96816    507.94624 
  121000   -353.10872    525.19251 
  121100   -353.09501    523.53371 
  121200   -353.68294    595.69069 
  121300   -353.25353    542.98375 
  121400   -353.01587    513.80703 
  121500   -353.61213    586.99076 
  121600   -353.00757     512.8019 
  121700   -353.47163     569.7634 
  121800   -352.16475    605.22722 
  121900   -352.59177    461.60329 
  122000     -353.011    513.15719 
  122100   -353.11629    526.10087 
  122200   -352.95707    506.56109 
  122300   -353.02502    514.90041 
  122400   -352.98404    509.85527 
  122500    -352.9834    509.77995 
  122600   -352.98138    509.54267 
  122700     -353.874    619.10548 
  122800   -352.77172    483.80408 
  122900   -352.57356    459.45956 
  123000   -352.98292    509.72392 
  123100   -353.20818    537.40041 
  123200   -353.46163    568.48394 
  123300   -353.38631    559.22962 
  123400   -352.71403    476.73016 
  123500   -353.42012    563.37959 
  123600   -352.74219    480.17389 
  123700    -351.4266    514.66475 
  123800   -353.16643    532.13712 
  123900   -352.97689    508.88735 
  124000    -353.6578    592.46938 
  124100   -353.23614     540.7138 
  124200   -352.78491    485.31464 
  124300   -352.93087     503.2161 
  124400   -352.44176    443.20199 
  124500   -353.34967    554.63993 
  124600   -352.87739    496.67573 
  124700   -352.38285    435.96028 
  124800   -352.82334    490.02616 
  124900   -353.16226    531.64387 
  125000    -353.1899    535.03171 
  125100   -352.56912     458.8372 
  125200    -352.3633    433.56996 
  125300   -353.18699    534.69075 
  125400   -351.10218    474.61237 
  125500   -352.91936    501.83486 
  125600   -351.29261        498.1 
  125700   -353.48478     570.8069 
  125800   -353.34007     553.0639 
  125900   -353.32644    551.38217 
  126000   -351.37291    507.59372 
  126100   -352.83843    491.29366 
  126200   -352.97664     508.2673 
  126300   -353.52502    575.57541 
  126400   -352.87597    495.91335 
  126500   -352.88206    496.64376 
  126600   -352.62525    465.12034 
  126700    -352.8045    487.12093 
  126800   -352.81946    488.95783 
  126900   -352.88591    497.12323 
  127000   -353.14258    528.62416 
  127100   -352.75666      481.258 
  127200   -353.00315     511.5135 
  127300    -353.2363    540.11941 
  127400   -352.53106    453.56964 
  127500   -353.02986    514.78741 
  127600   -353.04504    516.64423 
  127700   -353.01529    512.99388 
  127800   -352.82009    489.04966 
  127900   -353.09579    522.88334 
  128000   -352.73702    478.83929 
  128100   -352.95162    505.18523 
  128200   -352.95911    506.11573 
  128300   -352.81653    488.59381 
  128400   -352.44331    442.79651 
  128500   -353.05394    517.76224 
  128600   -352.97447    508.01641 
  128700   -352.74449    479.79977 
  128800    -353.1439    528.82163 
  128900   -353.32823    551.45202 
  129000   -353.10003    523.44322 
  129100    -353.3643    555.87946 
  129200   -353.19562    535.17931 
  129300   -353.94748    627.46476 
  129400   -353.49271    571.64718 
  129500   -353.42355    563.15237 
  129600   -353.92145    624.25754 
  129700   -353.30774    548.94192 
  129800   -353.36272    555.66708 
  129900   -353.01377    512.82876 
  130000   -353.22836    539.19013 
  130100   -353.67035    593.43727 
  130200   -353.14134    528.50011 
  130300   -352.82697    489.90155 
  130400   -352.89237    497.93917 
  130500    -353.1139    525.12805 
  130600    -352.4898    448.51969 
  130700   -353.15604    530.29627 
  130800   -352.92796    502.42311 
  130900   -353.20083    535.91752 
  131000   -351.22542    489.31858 
  131100   -351.39463    510.09798 
  131200   -351.46462    518.69162 
  131300   -353.43064    564.14053 
  131400   -351.26819    494.47646 
  131500   -353.05797    518.57944 
  131600   -353.37993    558.11143 
  131700   -353.32494    551.36081 
  131800   -353.08217    521.54509 
  131900   -351.31027    500.31243 
  132000   -353.41988    563.33963 
  132100   -353.02293    514.63089 
  132200   -353.40296    561.25824 
  132300   -352.81957    489.65105 
  132400   -352.50663    451.16982 
  132500   -352.93997    504.35111 
  132600    -353.1774    533.49919 
  132700   -353.20153    536.47229 
  132800   -352.79041    486.00746 
  132900   -352.87717    496.64529 
  133000   -351.33854    503.90333 
  133100   -351.42819    514.90599 
  133200   -352.98974    510.64727 
  133300   -352.69211      474.089 
  133400   -352.75559    481.88648 
  133500   -351.18496    484.79774 
  133600   -353.27793    545.78412 
  133700   -353.06631    519.83135 
  133800   -353.49095    571.94379 
  133900   -352.71373    476.53864 
  134000   -353.40535    561.45182 
  134100   -353.45863    567.99894 
  134200   -353.45155    567.11924 
  134300   -353.35836    555.67889 
  134400   -353.20464    536.81877 
  134500   -353.39911    560.68744 
  134600   -353.32135    551.13406 
  134700    -353.3619    556.11081 
  134800   -351.77989    557.73405 
  134900   -353.35863    555.34412 
  135000   -353.25884    543.08213 
  135100   -353.44629    566.08116 
  135200   -351.45851    518.07491 
  135300   -353.50744    573.22906 
  135400   -353.34815     553.6825 
  135500   -353.31872    550.07339 
  135600   -353.04613    516.62098 
  135700   -353.33363    551.91178 
  135800   -353.09925    523.14082 
  135900   -352.58794    460.37153 
  136000   -353.24279    540.74943 
  136100   -353.17007    531.81749 
  136200   -352.69356    473.02234 
  136300   -353.00339    511.04321 
  136400   -353.49519    571.40142 
  136500   -352.86739    494.35308 
  136600   -352.89875    498.20159 
  136700   -353.20257    535.49296 
  136800   -352.95475    505.07379 
  136900   -352.86152    493.32189 
  137000   -352.96199     505.6482 
  137100   -352.71385    475.17336 
  137200   -353.16559    530.63055 
  137300   -352.98746    508.77321 
  137400   -353.47949    569.16182 
  137500   -353.10535     523.2467 
  137600   -352.98826    508.88457 
  137700   -353.86463    616.45021 
  137800    -352.9741    507.14702 
  137900   -352.80545    486.42564 
  138000    -351.3298    501.35817 
  138100   -349.60802    486.19447 
  138200   -353.63148    587.95834 
  138300   -353.14657    528.43834 
  138400   -352.76183    481.21065 
  138500   -353.13812    527.39907 
  138600   -352.77296    482.56734 
  138700   -353.15213    529.10483 
  138800   -353.18455    533.08695 
  138900   -352.94588    503.80195 
  139000   -352.86331    493.65539 
  139100    -352.7334    477.69494 
  139200   -352.73531    477.95292 
  139300   -353.22728     538.3486 
  139400   -352.93167    502.04863 
  139500   -353.07371    519.49586 
  139600   -353.25447    541.68317 
  139700   -352.93793    502.82612 
  139800   -353.26471    542.93691 
  139900   -353.10152    522.90351 
  140000   -352.88357    496.15816 
  140100   -353.56672    580.00747 
  140200   -353.13459    526.95951 
  140300   -352.65666    468.29279 
  140400   -353.08071    520.34401 
  140500    -353.2699    543.58038 
  140600   -352.95211    504.55041 
  140700   -351.31463    499.60358 
  140800   -353.07611    519.82163 
  140900   -353.05361    517.05046 
  141000   -353.18862    533.61919 
  141100   -353.33608    551.73531 
  141200   -353.19113     533.9344 
  141300   -350.64451    416.96474 
  141400    -352.5612    456.20845 
  141500   -351.17428    482.36801 
  141600   -352.91681    500.06799 
  141700   -352.95028    504.16181 
  141800   -353.44539    564.94623 
  141900   -352.97475    507.17809 
  142000   -353.10257    522.84216 
  142100   -352.82139    488.33772 
  142200    -353.6753    593.16736 
  142300   -353.56416     579.5241 
  142400    -352.4012    436.76037 
  142500   -352.79634    485.26765 
  142600   -353.61438    585.69877 
  142700    -353.4185    561.64717 
  142800   -352.43054    440.35194 
  142900   -352.87657    495.11883 
  143000   -353.18133    532.53108 
  143100   -352.91751    500.13075 
  143200    -350.9069    449.44079 
  143300   -353.21728    536.66084 
  143400   -353.49336    570.54902 
  143500   -353.22569    537.68506 
  143600   -353.44183    564.22096 
  143700   -353.02721    513.33263 
  143800    -353.5703    579.99634 
  143900   -353.15445    528.94854 
  144000   -351.25531     491.7272 
  144100   -353.31592    548.64687 
  144200   -352.81757    487.48913 
  144300   -352.77892    482.73739 
  144400   -353.08185     519.9159 
  144500   -352.91524    499.48351 
  144600   -353.03548    514.23837 
  144700   -352.42777    439.63422 
  144800   -351.64103     539.1205 
  144900   -353.43585    563.37032 
  145000   -351.51516    523.86464 
  145100   -353.04625    515.82273 
  145200    -353.4307    563.02059 
  145300   -353.18727    533.13943 
  145400   -352.90078    497.94792 
  145500    -353.3598    554.30157 
  145600   -353.36596    555.06781 
  145700   -352.81712    487.68076 
  145800   -352.78896    484.22703 
  145900   -353.29601     546.4899 
  146000   -353.56845     579.9196 
  146100   -352.57667    458.16587 
  146200   -352.94962    503.95901 
  146300   -353.10691    523.27042 
  146400   -353.35969    554.27189 
  146500   -351.09433     472.4526 
  146600   -351.33832    502.52954 
  146700   -353.33387    551.43163 
  146800   -353.26599     543.3629 
  146900    -350.3753    384.44015 
  147000   -353.28486    545.51477 
  147100   -352.80078    486.10567 
  147200   -352.84457    491.47213 
  147300   -353.29637    546.92558 
  147400   -353.13096    526.63499 
  147500   -352.94768    504.10781 
  147600   -350.83447    440.60331 
  147700   -352.95155     504.5063 
  147800   -352.65463    468.05917 
  147900   -352.73125    477.80096 
  148000   -352.77156    482.76866 
  148100   -353.05551    517.61444 
  148200   -352.89813    498.30538 
  148300   -353.27825    544.96149 
  148400   -352.72105    476.56133 
  148500   -352.75898    481.20668 
  148600   -353.43506    564.20208 
  148700   -351.29559    497.58347 
  148800    -353.2707    543.86833 
  148900   -353.35691    554.44889 
  149000   -352.99549    510.09522 
  149100   -353.31093    548.79821 
  149200   -352.84343    491.43914 
  149300   -353.23375    539.33984 
  149400   -351.35911    505.24834 
  149500   -352.57702    458.59565 
  149600   -353.51382    573.58452 
  149700     -353.146    528.45444 
  149800   -352.91108    499.60343 
  149900   -353.23344    539.15875 
  150000   -352.60532     462.0814 
  150100   -352.96451    506.16325 
  150200   -352.69355    472.90236 
  150300   -353.07249    519.43199 
  150400   -351.53496    526.54988 
  150500   -351.31665    500.17403 
  150600    -352.4772    446.39149 
  150700   -353.23986    539.99856 
  150800    -353.4299    563.30993 
  150900   -352.70675    474.55361 
  151000   -353.03092    514.35869 
  151100   -353.37687    556.82532 
  151200     -353.194    534.38595 
  151300   -352.82613    489.23241 
  151400   -352.99721    510.21289 
  151500    -353.6122    585.70774 
  151600   -353.04929    516.62907 
  151700   -352.80174    486.21323 
  151800   -352.32214    427.34119 
  151900   -353.01417    512.31474 
  152000   -353.04256     516.0961 
  152100   -352.87888    495.98652 
  152200   -352.91104    499.93807 
  152300   -353.28516    545.85779 
  152400   -352.98696    509.25847 
  152500   -352.95953    505.88738 
  152600   -353.50166    572.44298 
  152700   -352.97152    507.37785 
  152800   -352.83268    490.31008 
  152900   -353.16641     531.2749 
  153000   -353.13118    526.97049 
  153100   -353.31481    549.50845 
  153200   -353.13756    527.73738 
  153300    -352.5792     459.1875 
  153400    -352.9896    509.57649 
  153500   -353.09866    522.97142 
  153600   -353.02231    513.58822 
  153700   -352.72475    477.06577 
  153800   -353.09064    521.97063 
  153900   -352.92264     501.3468 
  154000   -352.83289    490.34232 
  154100   -353.65708     591.5074 
  154200   -353.27353    544.42872 
  154300   -352.61627    463.74498 
  154400   -352.87769    495.80523 
  154500   -353.26204    543.02229 
  154600   -353.72324     599.6285 
  154700   -353.11336    524.73911 
  154800    -352.5418    454.60382 
  154900   -353.59769    584.22187 
  155000   -353.43906     564.7455 
  155100   -352.86076     493.7506 
  155200   -352.79425    485.59059 
  155300   -353.21397    537.13032 
  155400   -351.51926    524.89292 
  155500   -352.97552    507.64414 
  155600   -353.14469    528.41706 
  155700   -353.31595    549.43234 
  155800   -353.12716    526.25387 
  155900   -353.16343    530.71988 
  156000   -353.17165    531.72721 
  156100   -352.77153    482.59551 
  156200   -352.76948    482.34274 
  156300   -353.07169    519.44919 
  156400   -353.72031    599.06343 
  156500   -353.02262    513.40771 
  156600   -352.61821    463.76914 
  156700   -353.39916    559.64024 
  156800   -353.49921    571.92088 
  156900   -353.00434    511.18164 
  157000   -353.39348    558.95625 
  157100    -353.5995    584.25528 
  157200    -352.8129    487.69289 
  157300   -352.97657    507.76799 
  157400   -352.95331    504.91265 
  157500   -351.14569    479.02296 
  157600   -353.18567    533.11289 
  157700   -352.95817    505.20961 
  157800    -353.3186    549.43467 
  157900   -352.87532    495.01292 
  158000   -352.73306    477.55514 
  158100   -353.11565    524.52218 
  158200   -353.18871    533.49207 
  158300    -352.7226    476.27167 
  158400   -353.05717    517.34023 
  158500   -353.18329    532.82212 
  158600   -352.89477    497.40069 
  158700   -353.08228    520.42514 
  158800   -353.29191    546.16156 
  158900   -352.96902    506.51881 
  159000   -352.75241    479.93905 
  159100   -353.26655    543.04887 
  159200   -353.29903    547.03961 
  159300   -353.01232    511.84446 
  159400   -353.16404     530.4683 
  159500   -353.17613    531.94749 
  159600   -352.77249    482.41123 
  159700    -351.2465    491.08018 
  159800   -351.50134    522.34416 
  159900   -352.55377     455.6475 
  160000    -352.7702    482.21485 
  160100   -353.23375    539.11947 
  160200   -352.64087    466.33485 
  160300   -351.09256    472.14749 
  160400   -353.33287    551.40517 
  160500    -351.4882    521.07875 
  160600   -352.92233    501.20636 
  160700   -353.78599    607.19905 
  160800   -352.88854    497.04822 
  160900   -352.84701    491.95836 
  161000    -353.2493     541.3339 
  161100   -352.77774    482.84096 
  161200   -352.85351    492.15025 
  161300   -353.45717    566.24358 
  161400    -353.1814    532.39294 
  161500   -352.91117    499.21081 
  161600   -352.86389    493.41287 
  161700   -353.14042    527.37923 
  161800   -353.32357     549.8528 
  161900   -352.98221    507.94387 
  162000    -353.3647    554.91089 
  162100    -353.4224    561.98882 
  162200   -353.21777    536.86307 
  162300   -353.57078    580.19369 
  162400    -352.9114    499.26737 
  162500   -353.21288    536.25145 
  162600   -353.18623    532.98493 
  162700     -353.251    540.92951 
  162800   -352.87153    494.34367 
  162900      -353.05    516.25425 
  163000   -353.36576     555.0135 
  163100   -351.39629    509.08821 
  163200   -352.78671     483.8043 
  163300   -353.04883    515.98038 
  163400   -353.63923    588.45614 
  163500   -352.92349    500.60054 
  163600   -353.29256    545.89288 
  163700   -353.15255    528.70345 
  163800   -352.88334    495.66583 
  163900   -353.76038    603.32558 
  164000   -352.82402    488.40453 
  164100   -353.13902    527.04325 
  164200   -353.12364    525.14825 
  164300   -352.53221    452.56403 
  164400   -353.11399    523.97124 
  164500   -351.64029    539.16907 
  164600   -352.46236    444.25477 
  164700   -352.78741    484.16143 
  164800   -353.03132    514.10619 
  164900   -352.70881    474.51298 
  165000   -352.79684    485.30311 
  165100   -352.81209    487.16828 
  165200   -352.74685    479.17813 
  165300   -352.80706    486.54146 
  165400   -353.11431    524.23865 
  165500   -352.91515     499.7794 
  165600   -352.68599    471.65782 
  165700   -352.94494    503.44176 
  165800   -352.96096    505.42223 
  165900     -352.688    471.90645 
  166000   -350.80109    436.11346 
  166100     -352.941    502.61315 
  166200   -352.97991    507.41619 
  166300    -353.6733    592.52432 
  166400   -352.81116    486.69443 
  166500   -352.84647    491.02251 
  166600   -353.48194    569.03029 
  166700   -352.87913    495.04889 
  166800   -353.18306    532.33625 
  166900   -352.56317      456.259 
  167000   -353.39977     558.9332 
  167100   -352.59561    460.24346 
  167200   -352.86433    493.21988 
  167300   -352.99973    509.83322 
  167400   -352.82824    488.78686 
  167500   -353.06158    517.43586 
  167600   -353.04237    515.08365 
  167700   -352.77562    482.33782 
  167800   -353.04477    515.36041 
  167900   -352.76318    480.79695 
  168000   -353.22374    537.32483 
  168100   -353.36063    554.14399 
  168200   -352.97835    507.22375 
  168300   -353.11562    524.06747 
  168400   -352.85521    492.19748 
  168500   -353.08814    520.78176 
  168600   -353.46336    566.84819 
  168700   -352.40068    436.40996 
  168800   -352.92187    500.36023 
  168900   -353.40782    560.01952 
  169000   -353.34649    552.50481 
  169100   -353.08404    520.29552 
  169200   -351.14785    478.68407 
  169300   -353.62881    587.03585 
  169400   -350.91435    450.18411 
  169500   -352.91812    499.81204 
  169600    -353.3833    556.91719 
  169700   -352.99903    509.76962 
  169800   -351.38557    508.00275 
  169900   -352.89595    497.25344 
  170000   -353.01593    511.99133 
  170100   -352.89048    496.73585 
  170200   -352.69518    472.76204 
  170300   -353.66237    591.49261 
  170400   -353.01194    511.65652 
  170500   -353.24888     540.7104 
  170600   -353.15152    528.76369 
  170700   -352.98203    507.98509 
  170800   -353.16887    530.91154 
  170900   -353.33531    551.31014 
  171000   -352.62421     464.0453 
  171100   -353.15975    529.78704 
  171200   -352.90456    498.45332 
  171300   -352.74919    479.37052 
  171400   -353.26051    542.15362 
  171500   -352.74642    479.05663 
  171600   -352.99093    509.00338 
  171700     -352.766     481.4096 
  171800   -353.40643    560.02002 
  171900   -353.19567    534.15855 
  172000   -353.30373    547.41777 
  172100   -353.16526    530.43412 
  172200   -353.10153    522.50837 
  172300   -353.21395    536.29553 
  172400   -353.23396    538.76687 
  172500   -352.77518    482.46409 
  172600   -353.07581    519.34554 
  172700    -352.8126    487.04386 
  172800   -352.82799    488.95668 
  172900   -353.69507     595.3713 
  173000   -352.80141    485.66893 
  173100   -352.90644    498.57686 
  173200   -353.32375    549.80848 
  173300   -353.38788    557.66508 
  173400   -352.85597    492.37842 
  173500   -353.06933    518.56912 
  173600   -353.17033     530.9698 
  173700   -352.88257     495.6373 
  173800   -353.31388     548.5695 
  173900   -352.80416    486.02042 
  174000   -353.14802    528.23029 
  174100   -352.78486    483.62496 
  174200   -352.89838    497.55614 
  174300   -353.22716    537.94134 
  174400   -352.89241    496.85361 
  174500   -352.64035    465.88114 
  174600   -352.78602    483.77116 
  174700   -353.40208    559.41474 
  174800   -351.84712    564.40799 
  174900   -351.16423    480.58889 
  175000   -352.83354    489.46817 
  175100   -352.58199    458.59507 
  175200   -352.75345    479.62862 
  175300   -351.45905    517.07131 
  175400   -352.57094    457.13353 
  175500   -353.18005    531.89615 
  175600   -352.89929    497.42365 
  175700   -350.67057    419.84053 
  175800   -352.80809    486.32124 
  175900   -353.42264    561.77318 
  176000   -353.56814    579.62579 
  176100   -352.28049    421.56979 
  176200   -353.16311    529.90179 
  176300   -353.62503    586.63423 
  176400   -353.49012    570.06219 
  176500   -353.09516    521.56538 
  176600   -352.96687    505.83492 
  176700   -353.54538    576.84538 
  176800   -353.46227    566.63507 
  176900   -353.05697    516.89561 
  177000   -352.99237    508.95648 
  177100   -352.62047    463.31046 
  177200    -353.4162    560.97226 
  177300   -352.70258    473.38748 
  177400   -352.75053    479.27439 
  177500   -353.10961    523.35722 
  177600   -352.91462    499.41743 
  177700   -351.63456    538.24951 
  177800   -353.38291    556.89368 
  177900   -353.27089    543.12635 
  178000   -353.18274    532.30527 
  178100   -353.06715    518.10919 
  178200   -353.08644    520.48643 
  178300   -353.32168    549.37101 
  178400   -353.27892    544.10564 
  178500   -353.46588    567.04707 
  178600   -352.98105    507.54769 
  178700   -353.31916    549.04238 
  178800   -353.35446    553.38613 
  178900   -353.56212    578.88696 
  179000   -352.91738    499.73399 
  179100   -353.18554    532.63964 
  179200   -353.03633    514.33349 
  179300   -353.08747    520.61267 
  179400   -353.11281    523.70231 
  179500    -352.8536    491.89245 
  179600   -352.94045     502.5659 
  179700   -352.84011    490.23981 
  179800   -352.63198    464.68484 
  179900   -352.94988    503.73766 
  180000   -353.29212    545.73635 
  180100   -352.74623    478.73188 
  180200   -353.06586    517.97498 
  180300   -353.85175    614.43183 
  180400   -353.11829    524.41462 
  180500   -352.96713    505.85174 
  180600   -353.51039    572.52635 
  180700   -352.71194    474.54348 
  180800   -352.98665    508.23148 
  180900   -352.96245    505.27462 
  181000   -352.77992    482.86733 
  181100   -352.76621    481.16881 
  181200   -352.70215    473.30612 
  181300   -352.99757    509.56955 
  181400   -352.72379    475.96626 
  181500   -352.96604     505.7065 
  181600   -352.99794    509.63251 
  181700     -353.066    517.99009 
  181800    -352.8607    492.77892 
  181900   -350.94033    453.24069 
  182000   -353.11578    524.35829 
  182100   -353.43935    564.06885 
  182200   -352.86042    493.00684 
  182300   -352.89022    496.66643 
  182400   -353.16762    530.71827 
  182500   -353.21907    537.04232 
  182600   -352.85691    492.58324 
  182700   -353.06585    518.21788 
  182800   -352.95105    504.12516 
  182900   -352.90807    498.85074 
  183000   -352.84967    491.68626 
  183100   -353.28606    545.26602 
  183200   -353.16809    530.77487 
  183300   -352.58062    458.66791 
  183400    -352.7555    480.12616 
  183500   -352.60398    461.51293 
  183600   -352.73035    477.03634 
  183700   -353.58559    582.02261 
  183800   -352.33648    428.71901 
  183900   -352.84694    491.35554 
  184000   -353.22011    537.16993 
  184100   -353.13887    527.20304 
  184200   -353.36765    555.27476 
  184300   -353.06177    517.73356 
  184400   -353.27362    543.72713 
  184500   -353.12494    525.47645 
  184600   -353.04289    515.41558 
  184700   -353.29548    546.41965 
  184800   -353.21841    536.95582 
  184900   -352.73269    477.32158 
  185000    -352.5242    451.74247 
  185100   -352.86692    493.81375 
  185200   -353.25008    540.83949 
  185300   -352.80446    486.14583 
  185400   -353.19919    534.59014 
  185500   -353.07811    519.74261 
  185600   -352.77831    482.93748 
  185700   -352.95318    504.40017 
  185800   -352.69228    472.37011 
  185900   -352.67447    470.18535 
  186000   -352.76384     481.1583 
  186100   -353.50024    571.53607 
  186200   -352.99067    509.00835 
  186300   -352.75069     479.5512 
  186400   -352.68869    471.91525 
  186500   -352.41295     438.0794 
  186600   -352.68724     471.7592 
  186700    -353.2684    543.08511 
  186800   -352.57905    458.47208 
  186900    -352.6385    465.77773 
  187000   -353.43077    563.02657 
  187100   -352.65797    468.16394 
  187200    -352.8009    485.70693 
  187300   -351.10914     474.3199 
  187400   -353.08083    520.26674 
  187500   -352.77131    482.27696 
  187600   -352.91424     499.8316 
  187700   -353.08761     521.0893 
  187800   -353.20339    535.31243 
  187900   -353.27011    543.51038 
  188000   -353.22861    538.40045 
  188100    -350.8284     439.9014 
  188200   -353.26695    543.06796 
  188300   -353.23174    538.76361 
  188400   -353.05692    517.31113 
  188500   -353.42585    562.58207 
  188600    -350.9493    454.43404 
  188700   -352.89599    497.33307 
  188800   -353.02142    512.74809 
  188900   -353.31268    548.48233 
  189000   -352.55359     455.3134 
  189100   -352.61035    462.28228 
  189200    -353.0552    516.88709 
  189300   -353.36041    554.34878 
  189400   -352.78184    483.32898 
  189500   -353.21989    537.10689 
  189600   -353.26563    542.72641 
  189700   -352.52999    452.42503 
  189800   -352.86925    494.06307 
  189900   -353.04178    515.25084 
  190000   -353.17347    531.40353 
  190100   -351.09129    472.02023 
  190200    -352.6917    472.53661 
  190300   -353.24867    540.90989 
  190400   -351.12332    476.23875 
  190500   -350.89101    448.08001 
  190600   -351.41076    511.89272 
  190700   -351.33651    503.48678 
  190800   -352.43647    442.34082 
  190900    -352.4351    442.19114 
  191000   -353.19852    535.90535 
  191100   -352.39804    437.65835 
  191200   -352.25604      420.215 
  191300   -352.93708    503.81333 
  191400   -351.72949    551.71021 
  191500   -353.09714    523.53015 
  191600   -352.91273    500.89006 
  191700   -353.39271    559.80674 
  191800   -353.32205    551.13708 
  191900   -352.96905    507.80323 
  192000   -353.16065    531.33895 
  192100    -353.3983    560.49985 
  192200   -350.95299    456.40872 
  192300   -352.46151    445.45489 
  192400   -353.39742    560.34742 
  192500   -352.96963    507.83816 
  192600   -352.77606    484.06732 
  192700   -353.34326    553.70529 
  192800   -353.37087    557.10614 
  192900    -352.6214      465.097 
  193000   -352.86797     495.3544 
  193100   -353.18104    533.78351 
  193200    -352.9346    503.52272 
  193300   -353.67656    594.61846 
  193400    -353.6097    586.41864 
  193500   -352.97564     508.5674 
  193600    -352.9743    508.40358 
  193700   -353.46419    568.54484 
  193800   -353.33815    553.07358 
  193900   -352.54059    455.31284 
  194000   -353.37827    558.13733 
  194100    -352.7567    481.84563 
  194200   -352.95854    506.60678 
  194300   -352.97107    508.15135 
  194400   -352.83949    492.01719 
  194500   -353.08501    522.13541 
  194600   -352.79751    486.72107 
  194700   -352.74632     480.4478 
  194800   -353.25955    543.44004 
  194900   -353.08323    521.81012 
  195000   -351.24758    492.40898 
  195100   -353.00838    512.47732 
  195200   -352.84966    493.00091 
  195300   -353.40157    560.75252 
  195400   -353.03977    516.34741 
  195500   -353.15397    530.34109 
  195600      -352.88    496.72328 
  195700   -353.11938    526.11704 
  195800   -353.06824    519.83238 
  195900    -352.6482    468.27115 
  196000   -353.30094    548.40162 
  196100   -353.51273    574.40583 
  196200   -352.87474    496.06531 
  196300    -352.9158    501.12417 
  196400     -353.387    558.97879 
  196500   -353.74098    602.40461 
  196600   -352.76726    482.88151 
  196700   -352.83805    491.58012 
  196800   -353.21782    538.19975 
  196900   -353.29473      547.636 
  197000   -353.05619    518.35777 
  197100   -353.14183    528.86952 
  197200    -353.3233    551.14064 
  197300   -352.74501    480.16355 
  197400   -353.46076    568.00247 
  197500   -352.92232    501.92003 
  197600   -352.69073    473.49217 
  197700   -351.20465    487.24285 
  197800   -350.90891    450.95154 
  197900   -352.86262    494.80822 
  198000   -353.19181    535.22226 
  198100   -352.55188    456.67981 
  198200   -352.69049    473.67372 
  198300   -351.18725    485.18358 
  198400   -352.68646    473.11972 
  198500   -352.89808    499.08281 
  198600   -352.84804    492.93224 
  198700   -352.93855     504.0612 
  198800   -353.32415     551.4009 
  198900   -353.10202    524.13015 
  199000   -351.39968    511.42784 
  199100   -352.80269    487.29948 
  199200   -351.52466    526.27398 
  199300   -352.64758    467.80996 
  199400   -353.08575    521.58316 
  199500   -353.23228    539.56071 
  199600   -353.18513    533.77389 
  199700   -353.05619    517.95001 
  199800   -352.83521    490.81771 
  199900   -352.98512    509.21106 
  200000   -353.00518    511.67455 
  200100   -353.22727    538.94687 
  200200   -353.52805     575.8822 
  200300   -353.25725    542.63004 
  200400   -352.83753    491.09246 
  200500   -353.18359    533.58644 
  200600   -353.77263    605.89427 
  200700   -353.07193    519.88022 
  200800   -352.75065    480.43567 
  200900    -353.2148    537.41887 
  201000   -353.11563    525.26612 
  201100   -352.78489    484.63813 
  201200   -352.42607    440.59122 
  201300   -352.72772    477.65015 
  201400   -353.39999    560.15955 
  201500   -352.60446    462.50239 
  201600   -352.73965    479.44315 
  201700   -352.90752    500.04236 
  201800    -352.7509    480.80668 
  201900   -352.54177      455.142 
  202000   -353.26296    543.67332 
  202100   -352.92733    502.47041 
  202200   -352.50755    450.92861 
  202300   -353.42255    563.24645 
  202400   -352.95276    505.60285 
  202500    -350.9723    458.52392 
  202600   -352.69392    473.77698 
  202700   -353.36363    555.99922 
  202800   -353.10005    523.65783 
  202900   -352.96749    507.36496 
  203000   -353.05268    517.82204 
  203100   -352.87324    495.80501 
  203200   -353.22037    538.41328 
  203300   -353.08098    521.30611 
  203400   -352.80584    487.53675 
  203500   -352.76602    482.64231 
  203600   -353.41997    562.91543 
  203700   -352.54591    455.63428 
  203800   -352.71574    476.46135 
  203900   -352.92576    502.25777 
  204000   -352.77404    483.63682 
  204100   -352.54638    455.66455 
  204200   -352.32534    428.54781 
  204300   -353.47811    570.05166 
  204400   -353.45313     566.9819 
  204500   -352.34656    431.15368 
  204600   -353.02777    514.76996 
  204700   -353.47336    569.47523 
  204800   -353.30601    548.92448 
  204900   -352.74604    480.17873 
  205000   -353.12365    526.53807 
  205100   -353.19238     534.9761 
  205200   -351.05356     468.5573 
  205300   -351.14788    480.18197 
  205400   -352.99012    509.90657 
  205500   -352.82844    490.05647 
  205600   -351.15455    480.49816 
  205700   -352.84782    492.23986 
  205800   -353.38511    558.18357 
  205900   -352.94845     504.5891 
  206000   -352.93398    502.81725 
  206100   -353.60836    585.58867 
  206200   -352.96487    506.61428 
  206300   -352.75284    480.58906 
  206400   -353.23834    540.18422 
  206500   -352.79592    485.88683 
  206600   -352.95523    505.42009 
  206700   -353.06703    519.14729 
  206800   -353.00984    512.13665 
  206900   -353.28901    546.40243 
  207000    -353.3858     558.2844 
  207100   -353.25023    541.64789 
  207200   -353.34806    553.64232 
  207300   -353.06789    519.29804 
  207400   -352.87513    495.63951 
  207500   -352.86804    494.76328 
  207600   -353.06638     519.1329 
  207700   -353.58528    582.82656 
  207800   -353.43778    564.71815 
  207900   -352.85584    493.27199 
  208000   -353.17888    532.93622 
  208100   -353.27014    543.63355 
  208200   -353.67168    592.92916 
  208300   -351.13036    477.01292 
  208400   -352.95301     504.5078 
  208500   -353.60432    584.45374 
  208600   -353.25421    541.47746 
  208700   -353.14419    527.77971 
  208800   -353.32001    549.35869 
  208900   -353.22996    538.29396 
  209000   -352.89886     497.6538 
  209100   -353.54597    577.09621 
  209200   -353.33714    551.46364 
  209300   -352.69855    473.06717 
  209400    -353.3941    558.42884 
  209500   -351.55273     528.5568 
  209600   -351.42591     512.9893 
  209700   -353.41271    560.66171 
  209800    -352.6938    472.41437 
  209900   -353.21956    536.93499 
  210000   -353.04372    515.27611 
  210100   -352.79212    484.39462 
  210200   -352.76216    480.70958 
  210300   -353.03283    513.93745 
  210400   -352.96721    505.88948 
  210500   -351.34619    503.03436 
  210600   -352.86279     492.8339 
  210700   -352.72422    475.79981 
  210800   -353.25518    540.97371 
  210900   -353.19966    534.18505 
  211000   -352.99466    509.01965 
  211100   -352.95713    504.40461 
  211200   -353.07951    519.41314 
  211300   -353.42945    562.36843 
  211400   -351.28905    495.88102 
  211500   -353.11676    524.01792 
  211600   -351.66692    542.17245 
  211700   -353.16182    529.64551 
  211800   -353.44726    564.67534 
  211900   -353.07316    518.76284 
  212000   -353.09906    521.93991 
  212100   -353.31103    547.95418 
  212200    -353.0883    520.61625 
  212300   -353.05924    517.03638 
  212400   -352.67934     470.4191 
  212500   -353.03168    513.68553 
  212600   -353.40146    559.06247 
  212700   -352.74469    478.44268 
  212800   -352.45384    442.73764 
  212900   -353.13946    526.90198 
  213000   -3