 vasp.5.3.3 18Dez12 (build Aug 19 2015 04:09:51) complex                        
  
 executed on             LinuxIFC date 2016.01.25  01:48:12
 running on    1 total cores
 distrk:  each k-point on    1 cores,    1 groups
 distr:  one band on NCORES_PER_BAND=   1 cores,    1 groups


--------------------------------------------------------------------------------------------------------


 INCAR:
 POTCAR:    PAW_PBE Ge_d 03Jul2007                
 POTCAR:    PAW_PBE Ge_d 03Jul2007                
   VRHFIN =Ge: 3d4s4p                                                           
   LEXCH  = PE                                                                  
   EATOM  =  2596.2402 eV,  190.8183 Ry                                         
                                                                                
   TITEL  = PAW_PBE Ge_d 03Jul2007                                              
   LULTRA =        F    use ultrasoft PP ?                                      
   IUNSCR =        1    unscreen: 0-lin 1-nonlin 2-no                           
   RPACOR =    2.000    partial core radius                                     
   POMASS =   72.610; ZVAL   =   14.000    mass and valenz                      
   RCORE  =    2.300    outmost cutoff radius                                   
   RWIGS  =    2.300; RWIGS  =    1.217    wigner-seitz radius (au A)           
   ENMAX  =  310.294; ENMIN  =  232.720 eV                                      
   ICORE  =        3    local potential                                         
   LCOR   =        T    correct aug charges                                     
   LPAW   =        T    paw PP                                                  
   EAUG   =  531.356                                                            
   DEXC   =    0.000                                                            
   RMAX   =    2.342    core radius for proj-oper                               
   RAUG   =    1.300    factor for augmentation sphere                          
   RDEP   =    2.318    radius for radial grids                                 
   RDEPT  =    1.783    core radius for aug-charge                              
                                                                                
   Atomic configuration                                                         
    9 entries                                                                   
     n  l   j            E        occ.                                          
     1  0  0.50    -10959.8463   2.0000                                         
     2  0  0.50     -1371.6056   2.0000                                         
     2  1  1.50     -1198.4791   6.0000                                         
     3  0  0.50      -168.4733   2.0000                                         
     3  1  1.50      -115.6019   6.0000                                         
     3  2  2.50       -29.3106  10.0000                                         
     4  0  0.50       -11.7309   2.0000                                         
     4  1  0.50        -3.8952   2.0000                                         
     4  3  2.50        -4.0817   0.0000                                         
   Description                                                                  
     l       E           TYP  RCUT    TYP  RCUT                                 
     2    -29.3105938     23  2.200                                             
     2    -13.6058260     23  2.200                                             
     0    -11.7309493     23  2.300                                             
     0     -7.4578696     23  2.300                                             
     1     -3.8952261     23  2.300                                             
     1      6.1178114     23  2.300                                             
     3     -1.3605826     23  2.300                                             
  local pseudopotential read in
  partial core-charges read in
  partial kinetic energy density read in
  atomic valenz-charges read in
  non local Contribution for L=           2  read in
    real space projection operators read in
  non local Contribution for L=           2  read in
    real space projection operators read in
  non local Contribution for L=           0  read in
    real space projection operators read in
  non local Contribution for L=           0  read in
    real space projection operators read in
  non local Contribution for L=           1  read in
    real space projection operators read in
  non local Contribution for L=           1  read in
    real space projection operators read in
    PAW grid and wavefunctions read in
 
   number of l-projection  operators is LMAX  =           6
   number of lm-projection operators is LMMAX =          18
 
  PAW_PBE Ge_d 03Jul2007                :
 energy of atom  1       EATOM=-2596.2402
 kinetic energy error for atom=    0.0197 (will be added to EATOM!!)
 
 
 POSCAR:   diamond Ge:                           
  positions in direct lattice
  No initial velocities read in
 exchange correlation table for  LEXCH =        8
   RHO(1)=    0.500       N(1)  =     2000
   RHO(2)=  100.500       N(2)  =     4000
 


--------------------------------------------------------------------------------------------------------


 ion  position               nearest neighbor table
   1  0.240  0.250  0.250-   5 2.42   8 2.42   7 2.48   6 2.48
   2  0.750  0.750  0.250-   5 2.45   6 2.45   7 2.45   8 2.45
   3  0.750  0.250  0.750-   5 2.45   6 2.45   7 2.45   8 2.45
   4  0.250  0.750  0.750-   5 2.45   6 2.45   7 2.45   8 2.45
   5  0.000  0.000  0.000-   1 2.42   2 2.45   3 2.45   4 2.45
   6  0.500  0.500  0.000-   2 2.45   3 2.45   4 2.45   1 2.48
   7  0.500  0.000  0.500-   2 2.45   3 2.45   4 2.45   1 2.48
   8  0.000  0.500  0.500-   1 2.42   2 2.45   3 2.45   4 2.45
 
  LATTYP: Found a simple cubic cell.
 ALAT       =     5.6580000000
  
  Lattice vectors:
  
 A1 = (   5.6580000000,   0.0000000000,   0.0000000000)
 A2 = (   0.0000000000,   5.6580000000,   0.0000000000)
 A3 = (   0.0000000000,   0.0000000000,   5.6580000000)


Analysis of symmetry for initial positions (statically):
=====================================================================
 Subroutine PRICEL returns:
 Original cell was already a primitive cell.
 

 Routine SETGRP: Setting up the symmetry group for a 
 simple cubic supercell.


 Subroutine GETGRP returns: Found  4 space group operations
 (whereof  2 operations were pure point group operations)
 out of a pool of 48 trial point group operations.


The static configuration has the point symmetry C_1h.
 The point group associated with its full space group is C_2v.


Analysis of symmetry for dynamics (positions and initial velocities):
=====================================================================
 Subroutine PRICEL returns:
 Original cell was already a primitive cell.
 

 Routine SETGRP: Setting up the symmetry group for a 
 simple cubic supercell.


 Subroutine GETGRP returns: Found  4 space group operations
 (whereof  2 operations were pure point group operations)
 out of a pool of 48 trial point group operations.


The dynamic configuration has the point symmetry C_1h.
 The point group associated with its full space group is C_2v.


 irot  :   1
 --------------------------------------------------------------------
 isymop:   1   0   0
           0   1   0
           0   0   1

 gtrans:     0.0000000     0.0000000     0.0000000

 ptrans:     0.0000000     0.0000000     0.0000000
 rotmap:
 (   1->   1)  (   2->   2)  (   3->   3)  (   4->   4)  (   5->   5) 
 (   6->   6)  (   7->   7)  (   8->   8) 


 irot  :   2
 --------------------------------------------------------------------
 isymop:   1   0   0
           0   0   1
           0   1   0

 gtrans:     0.0000000     0.0000000     0.0000000

 ptrans:     0.0000000     0.0000000     0.0000000
 rotmap:
 (   1->   1)  (   2->   3)  (   3->   2)  (   4->   4)  (   5->   5) 
 (   6->   7)  (   7->   6)  (   8->   8) 


 irot  :   3
 --------------------------------------------------------------------
 isymop:   1   0   0
           0   0  -1
           0  -1   0

 gtrans:     0.0000000     0.5000000     0.5000000

 ptrans:     0.0000000     0.0000000     0.0000000
 rotmap:
 (   1->   1)  (   2->   3)  (   3->   2)  (   4->   4)  (   5->   8) 
 (   6->   6)  (   7->   7)  (   8->   5) 


 irot  :   4
 --------------------------------------------------------------------
 isymop:   1   0   0
           0  -1   0
           0   0  -1

 gtrans:     0.0000000     0.5000000     0.5000000

 ptrans:     0.0000000     0.0000000     0.0000000
 rotmap:
 (   1->   1)  (   2->   2)  (   3->   3)  (   4->   4)  (   5->   8) 
 (   6->   7)  (   7->   6)  (   8->   5) 
 
 
 KPOINTS: K-Points                                

Automatic generation of k-mesh.
Space group operators:
 irot       det(A)        alpha          n_x          n_y          n_z        tau_x        tau_y        tau_z
    1     1.000000     0.000000     1.000000     0.000000     0.000000     0.000000     0.000000     0.000000
    2    -1.000000   180.000000     0.000000    -0.707107     0.707107     0.000000     0.000000     0.000000
    3    -1.000000   180.000000     0.000000     0.707107     0.707107     0.000000     0.500000     0.500000
    4     1.000000   180.000000     1.000000     0.000000     0.000000     0.000000     0.500000     0.500000
 
 Subroutine IBZKPT returns following result:
 ===========================================
 
 Found   1000 irreducible k-points:
 
 Following reciprocal coordinates:
            Coordinates               Weight
  0.000000  0.000000  0.000000      1.000000
  0.052632  0.000000  0.000000      2.000000
  0.105263  0.000000  0.000000      2.000000
  0.157895  0.000000  0.000000      2.000000
  0.210526  0.000000  0.000000      2.000000
  0.263158  0.000000  0.000000      2.000000
  0.315789  0.000000  0.000000      2.000000
  0.368421  0.000000  0.000000      2.000000
  0.421053  0.000000  0.000000      2.000000
  0.473684  0.000000  0.000000      2.000000
  0.000000  0.052632  0.000000      4.000000
  0.052632  0.052632  0.000000      8.000000
  0.105263  0.052632  0.000000      8.000000
  0.157895  0.052632  0.000000      8.000000
  0.210526  0.052632  0.000000      8.000000
  0.263158  0.052632  0.000000      8.000000
  0.315789  0.052632  0.000000      8.000000
  0.368421  0.052632  0.000000      8.000000
  0.421053  0.052632  0.000000      8.000000
  0.473684  0.052632  0.000000      8.000000
  0.000000  0.105263  0.000000      4.000000
  0.052632  0.105263  0.000000      8.000000
  0.105263  0.105263  0.000000      8.000000
  0.157895  0.105263  0.000000      8.000000
  0.210526  0.105263  0.000000      8.000000
  0.263158  0.105263  0.000000      8.000000
  0.315789  0.105263  0.000000      8.000000
  0.368421  0.105263  0.000000      8.000000
  0.421053  0.105263  0.000000      8.000000
  0.473684  0.105263  0.000000      8.000000
  0.000000  0.157895  0.000000      4.000000
  0.052632  0.157895  0.000000      8.000000
  0.105263  0.157895  0.000000      8.000000
  0.157895  0.157895  0.000000      8.000000
  0.210526  0.157895  0.000000      8.000000
  0.263158  0.157895  0.000000      8.000000
  0.315789  0.157895  0.000000      8.000000
  0.368421  0.157895  0.000000      8.000000
  0.421053  0.157895  0.000000      8.000000
  0.473684  0.157895  0.000000      8.000000
  0.000000  0.210526  0.000000      4.000000
  0.052632  0.210526  0.000000      8.000000
  0.105263  0.210526  0.000000      8.000000
  0.157895  0.210526  0.000000      8.000000
  0.210526  0.210526  0.000000      8.000000
  0.263158  0.210526  0.000000      8.000000
  0.315789  0.210526  0.000000      8.000000
  0.368421  0.210526  0.000000      8.000000
  0.421053  0.210526  0.000000      8.000000
  0.473684  0.210526  0.000000      8.000000
  0.000000  0.263158  0.000000      4.000000
  0.052632  0.263158  0.000000      8.000000
  0.105263  0.263158  0.000000      8.000000
  0.157895  0.263158  0.000000      8.000000
  0.210526  0.263158  0.000000      8.000000
  0.263158  0.263158  0.000000      8.000000
  0.315789  0.263158  0.000000      8.000000
  0.368421  0.263158  0.000000      8.000000
  0.421053  0.263158  0.000000      8.000000
  0.473684  0.263158  0.000000      8.000000
  0.000000  0.315789  0.000000      4.000000
  0.052632  0.315789  0.000000      8.000000
  0.105263  0.315789  0.000000      8.000000
  0.157895  0.315789  0.000000      8.000000
  0.210526  0.315789  0.000000      8.000000
  0.263158  0.315789  0.000000      8.000000
  0.315789  0.315789  0.000000      8.000000
  0.368421  0.315789  0.000000      8.000000
  0.421053  0.315789  0.000000      8.000000
  0.473684  0.315789  0.000000      8.000000
  0.000000  0.368421  0.000000      4.000000
  0.052632  0.368421  0.000000      8.000000
  0.105263  0.368421  0.000000      8.000000
  0.157895  0.368421  0.000000      8.000000
  0.210526  0.368421  0.000000      8.000000
  0.263158  0.368421  0.000000      8.000000
  0.315789  0.368421  0.000000      8.000000
  0.368421  0.368421  0.000000      8.000000
  0.421053  0.368421  0.000000      8.000000
  0.473684  0.368421  0.000000      8.000000
  0.000000  0.421053  0.000000      4.000000
  0.052632  0.421053  0.000000      8.000000
  0.105263  0.421053  0.000000      8.000000
  0.157895  0.421053  0.000000      8.000000
  0.210526  0.421053  0.000000      8.000000
  0.263158  0.421053  0.000000      8.000000
  0.315789  0.421053  0.000000      8.000000
  0.368421  0.421053  0.000000      8.000000
  0.421053  0.421053  0.000000      8.000000
  0.473684  0.421053  0.000000      8.000000
  0.000000  0.473684  0.000000      4.000000
  0.052632  0.473684  0.000000      8.000000
  0.105263  0.473684  0.000000      8.000000
  0.157895  0.473684  0.000000      8.000000
  0.210526  0.473684  0.000000      8.000000
  0.263158  0.473684  0.000000      8.000000
  0.315789  0.473684  0.000000      8.000000
  0.368421  0.473684  0.000000      8.000000
  0.421053  0.473684  0.000000      8.000000
  0.473684  0.473684  0.000000      8.000000
  0.000000  0.052632  0.052632      2.000000
  0.052632  0.052632  0.052632      4.000000
  0.105263  0.052632  0.052632      4.000000
  0.157895  0.052632  0.052632      4.000000
  0.210526  0.052632  0.052632      4.000000
  0.263158  0.052632  0.052632      4.000000
  0.315789  0.052632  0.052632      4.000000
  0.368421  0.052632  0.052632      4.000000
  0.421053  0.052632  0.052632      4.000000
  0.473684  0.052632  0.052632      4.000000
  0.000000  0.105263  0.052632      4.000000
  0.052632  0.105263  0.052632      8.000000
  0.105263  0.105263  0.052632      8.000000
  0.157895  0.105263  0.052632      8.000000
  0.210526  0.105263  0.052632      8.000000
  0.263158  0.105263  0.052632      8.000000
  0.315789  0.105263  0.052632      8.000000
  0.368421  0.105263  0.052632      8.000000
  0.421053  0.105263  0.052632      8.000000
  0.473684  0.105263  0.052632      8.000000
  0.000000  0.157895  0.052632      4.000000
  0.052632  0.157895  0.052632      8.000000
  0.105263  0.157895  0.052632      8.000000
  0.157895  0.157895  0.052632      8.000000
  0.210526  0.157895  0.052632      8.000000
  0.263158  0.157895  0.052632      8.000000
  0.315789  0.157895  0.052632      8.000000
  0.368421  0.157895  0.052632      8.000000
  0.421053  0.157895  0.052632      8.000000
  0.473684  0.157895  0.052632      8.000000
  0.000000  0.210526  0.052632      4.000000
  0.052632  0.210526  0.052632      8.000000
  0.105263  0.210526  0.052632      8.000000
  0.157895  0.210526  0.052632      8.000000
  0.210526  0.210526  0.052632      8.000000
  0.263158  0.210526  0.052632      8.000000
  0.315789  0.210526  0.052632      8.000000
  0.368421  0.210526  0.052632      8.000000
  0.421053  0.210526  0.052632      8.000000
  0.473684  0.210526  0.052632      8.000000
  0.000000  0.263158  0.052632      4.000000
  0.052632  0.263158  0.052632      8.000000
  0.105263  0.263158  0.052632      8.000000
  0.157895  0.263158  0.052632      8.000000
  0.210526  0.263158  0.052632      8.000000
  0.263158  0.263158  0.052632      8.000000
  0.315789  0.263158  0.052632      8.000000
  0.368421  0.263158  0.052632      8.000000
  0.421053  0.263158  0.052632      8.000000
  0.473684  0.263158  0.052632      8.000000
  0.000000  0.315789  0.052632      4.000000
  0.052632  0.315789  0.052632      8.000000
  0.105263  0.315789  0.052632      8.000000
  0.157895  0.315789  0.052632      8.000000
  0.210526  0.315789  0.052632      8.000000
  0.263158  0.315789  0.052632      8.000000
  0.315789  0.315789  0.052632      8.000000
  0.368421  0.315789  0.052632      8.000000
  0.421053  0.315789  0.052632      8.000000
  0.473684  0.315789  0.052632      8.000000
  0.000000  0.368421  0.052632      4.000000
  0.052632  0.368421  0.052632      8.000000
  0.105263  0.368421  0.052632      8.000000
  0.157895  0.368421  0.052632      8.000000
  0.210526  0.368421  0.052632      8.000000
  0.263158  0.368421  0.052632      8.000000
  0.315789  0.368421  0.052632      8.000000
  0.368421  0.368421  0.052632      8.000000
  0.421053  0.368421  0.052632      8.000000
  0.473684  0.368421  0.052632      8.000000
  0.000000  0.421053  0.052632      4.000000
  0.052632  0.421053  0.052632      8.000000
  0.105263  0.421053  0.052632      8.000000
  0.157895  0.421053  0.052632      8.000000
  0.210526  0.421053  0.052632      8.000000
  0.263158  0.421053  0.052632      8.000000
  0.315789  0.421053  0.052632      8.000000
  0.368421  0.421053  0.052632      8.000000
  0.421053  0.421053  0.052632      8.000000
  0.473684  0.421053  0.052632      8.000000
  0.000000  0.473684  0.052632      4.000000
  0.052632  0.473684  0.052632      8.000000
  0.105263  0.473684  0.052632      8.000000
  0.157895  0.473684  0.052632      8.000000
  0.210526  0.473684  0.052632      8.000000
  0.263158  0.473684  0.052632      8.000000
  0.315789  0.473684  0.052632      8.000000
  0.368421  0.473684  0.052632      8.000000
  0.421053  0.473684  0.052632      8.000000
  0.473684  0.473684  0.052632      8.000000
  0.000000 -0.473684  0.052632      4.000000
  0.052632 -0.473684  0.052632      8.000000
  0.105263 -0.473684  0.052632      8.000000
  0.157895 -0.473684  0.052632      8.000000
  0.210526 -0.473684  0.052632      8.000000
  0.263158 -0.473684  0.052632      8.000000
  0.315789 -0.473684  0.052632      8.000000
  0.368421 -0.473684  0.052632      8.000000
  0.421053 -0.473684  0.052632      8.000000
  0.473684 -0.473684  0.052632      8.000000
  0.000000 -0.421053  0.052632      4.000000
  0.052632 -0.421053  0.052632      8.000000
  0.105263 -0.421053  0.052632      8.000000
  0.157895 -0.421053  0.052632      8.000000
  0.210526 -0.421053  0.052632      8.000000
  0.263158 -0.421053  0.052632      8.000000
  0.315789 -0.421053  0.052632      8.000000
  0.368421 -0.421053  0.052632      8.000000
  0.421053 -0.421053  0.052632      8.000000
  0.473684 -0.421053  0.052632      8.000000
  0.000000 -0.368421  0.052632      4.000000
  0.052632 -0.368421  0.052632      8.000000
  0.105263 -0.368421  0.052632      8.000000
  0.157895 -0.368421  0.052632      8.000000
  0.210526 -0.368421  0.052632      8.000000
  0.263158 -0.368421  0.052632      8.000000
  0.315789 -0.368421  0.052632      8.000000
  0.368421 -0.368421  0.052632      8.000000
  0.421053 -0.368421  0.052632      8.000000
  0.473684 -0.368421  0.052632      8.000000
  0.000000 -0.315789  0.052632      4.000000
  0.052632 -0.315789  0.052632      8.000000
  0.105263 -0.315789  0.052632      8.000000
  0.157895 -0.315789  0.052632      8.000000
  0.210526 -0.315789  0.052632      8.000000
  0.263158 -0.315789  0.052632      8.000000
  0.315789 -0.315789  0.052632      8.000000
  0.368421 -0.315789  0.052632      8.000000
  0.421053 -0.315789  0.052632      8.000000
  0.473684 -0.315789  0.052632      8.000000
  0.000000 -0.263158  0.052632      4.000000
  0.052632 -0.263158  0.052632      8.000000
  0.105263 -0.263158  0.052632      8.000000
  0.157895 -0.263158  0.052632      8.000000
  0.210526 -0.263158  0.052632      8.000000
  0.263158 -0.263158  0.052632      8.000000
  0.315789 -0.263158  0.052632      8.000000
  0.368421 -0.263158  0.052632      8.000000
  0.421053 -0.263158  0.052632      8.000000
  0.473684 -0.263158  0.052632      8.000000
  0.000000 -0.210526  0.052632      4.000000
  0.052632 -0.210526  0.052632      8.000000
  0.105263 -0.210526  0.052632      8.000000
  0.157895 -0.210526  0.052632      8.000000
  0.210526 -0.210526  0.052632      8.000000
  0.263158 -0.210526  0.052632      8.000000
  0.315789 -0.210526  0.052632      8.000000
  0.368421 -0.210526  0.052632      8.000000
  0.421053 -0.210526  0.052632      8.000000
  0.473684 -0.210526  0.052632      8.000000
  0.000000 -0.157895  0.052632      4.000000
  0.052632 -0.157895  0.052632      8.000000
  0.105263 -0.157895  0.052632      8.000000
  0.157895 -0.157895  0.052632      8.000000
  0.210526 -0.157895  0.052632      8.000000
  0.263158 -0.157895  0.052632      8.000000
  0.315789 -0.157895  0.052632      8.000000
  0.368421 -0.157895  0.052632      8.000000
  0.421053 -0.157895  0.052632      8.000000
  0.473684 -0.157895  0.052632      8.000000
  0.000000 -0.105263  0.052632      4.000000
  0.052632 -0.105263  0.052632      8.000000
  0.105263 -0.105263  0.052632      8.000000
  0.157895 -0.105263  0.052632      8.000000
  0.210526 -0.105263  0.052632      8.000000
  0.263158 -0.105263  0.052632      8.000000
  0.315789 -0.105263  0.052632      8.000000
  0.368421 -0.105263  0.052632      8.000000
  0.421053 -0.105263  0.052632      8.000000
  0.473684 -0.105263  0.052632      8.000000
  0.000000 -0.052632  0.052632      2.000000
  0.052632 -0.052632  0.052632      4.000000
  0.105263 -0.052632  0.052632      4.000000
  0.157895 -0.052632  0.052632      4.000000
  0.210526 -0.052632  0.052632      4.000000
  0.263158 -0.052632  0.052632      4.000000
  0.315789 -0.052632  0.052632      4.000000
  0.368421 -0.052632  0.052632      4.000000
  0.421053 -0.052632  0.052632      4.000000
  0.473684 -0.052632  0.052632      4.000000
  0.000000  0.105263  0.105263      2.000000
  0.052632  0.105263  0.105263      4.000000
  0.105263  0.105263  0.105263      4.000000
  0.157895  0.105263  0.105263      4.000000
  0.210526  0.105263  0.105263      4.000000
  0.263158  0.105263  0.105263      4.000000
  0.315789  0.105263  0.105263      4.000000
  0.368421  0.105263  0.105263      4.000000
  0.421053  0.105263  0.105263      4.000000
  0.473684  0.105263  0.105263      4.000000
  0.000000  0.157895  0.105263      4.000000
  0.052632  0.157895  0.105263      8.000000
  0.105263  0.157895  0.105263      8.000000
  0.157895  0.157895  0.105263      8.000000
  0.210526  0.157895  0.105263      8.000000
  0.263158  0.157895  0.105263      8.000000
  0.315789  0.157895  0.105263      8.000000
  0.368421  0.157895  0.105263      8.000000
  0.421053  0.157895  0.105263      8.000000
  0.473684  0.157895  0.105263      8.000000
  0.000000  0.210526  0.105263      4.000000
  0.052632  0.210526  0.105263      8.000000
  0.105263  0.210526  0.105263      8.000000
  0.157895  0.210526  0.105263      8.000000
  0.210526  0.210526  0.105263      8.000000
  0.263158  0.210526  0.105263      8.000000
  0.315789  0.210526  0.105263      8.000000
  0.368421  0.210526  0.105263      8.000000
  0.421053  0.210526  0.105263      8.000000
  0.473684  0.210526  0.105263      8.000000
  0.000000  0.263158  0.105263      4.000000
  0.052632  0.263158  0.105263      8.000000
  0.105263  0.263158  0.105263      8.000000
  0.157895  0.263158  0.105263      8.000000
  0.210526  0.263158  0.105263      8.000000
  0.263158  0.263158  0.105263      8.000000
  0.315789  0.263158  0.105263      8.000000
  0.368421  0.263158  0.105263      8.000000
  0.421053  0.263158  0.105263      8.000000
  0.473684  0.263158  0.105263      8.000000
  0.000000  0.315789  0.105263      4.000000
  0.052632  0.315789  0.105263      8.000000
  0.105263  0.315789  0.105263      8.000000
  0.157895  0.315789  0.105263      8.000000
  0.210526  0.315789  0.105263      8.000000
  0.263158  0.315789  0.105263      8.000000
  0.315789  0.315789  0.105263      8.000000
  0.368421  0.315789  0.105263      8.000000
  0.421053  0.315789  0.105263      8.000000
  0.473684  0.315789  0.105263      8.000000
  0.000000  0.368421  0.105263      4.000000
  0.052632  0.368421  0.105263      8.000000
  0.105263  0.368421  0.105263      8.000000
  0.157895  0.368421  0.105263      8.000000
  0.210526  0.368421  0.105263      8.000000
  0.263158  0.368421  0.105263      8.000000
  0.315789  0.368421  0.105263      8.000000
  0.368421  0.368421  0.105263      8.000000
  0.421053  0.368421  0.105263      8.000000
  0.473684  0.368421  0.105263      8.000000
  0.000000  0.421053  0.105263      4.000000
  0.052632  0.421053  0.105263      8.000000
  0.105263  0.421053  0.105263      8.000000
  0.157895  0.421053  0.105263      8.000000
  0.210526  0.421053  0.105263      8.000000
  0.263158  0.421053  0.105263      8.000000
  0.315789  0.421053  0.105263      8.000000
  0.368421  0.421053  0.105263      8.000000
  0.421053  0.421053  0.105263      8.000000
  0.473684  0.421053  0.105263      8.000000
  0.000000  0.473684  0.105263      4.000000
  0.052632  0.473684  0.105263      8.000000
  0.105263  0.473684  0.105263      8.000000
  0.157895  0.473684  0.105263      8.000000
  0.210526  0.473684  0.105263      8.000000
  0.263158  0.473684  0.105263      8.000000
  0.315789  0.473684  0.105263      8.000000
  0.368421  0.473684  0.105263      8.000000
  0.421053  0.473684  0.105263      8.000000
  0.473684  0.473684  0.105263      8.000000
  0.000000 -0.473684  0.105263      4.000000
  0.052632 -0.473684  0.105263      8.000000
  0.105263 -0.473684  0.105263      8.000000
  0.157895 -0.473684  0.105263      8.000000
  0.210526 -0.473684  0.105263      8.000000
  0.263158 -0.473684  0.105263      8.000000
  0.315789 -0.473684  0.105263      8.000000
  0.368421 -0.473684  0.105263      8.000000
  0.421053 -0.473684  0.105263      8.000000
  0.473684 -0.473684  0.105263      8.000000
  0.000000 -0.421053  0.105263      4.000000
  0.052632 -0.421053  0.105263      8.000000
  0.105263 -0.421053  0.105263      8.000000
  0.157895 -0.421053  0.105263      8.000000
  0.210526 -0.421053  0.105263      8.000000
  0.263158 -0.421053  0.105263      8.000000
  0.315789 -0.421053  0.105263      8.000000
  0.368421 -0.421053  0.105263      8.000000
  0.421053 -0.421053  0.105263      8.000000
  0.473684 -0.421053  0.105263      8.000000
  0.000000 -0.368421  0.105263      4.000000
  0.052632 -0.368421  0.105263      8.000000
  0.105263 -0.368421  0.105263      8.000000
  0.157895 -0.368421  0.105263      8.000000
  0.210526 -0.368421  0.105263      8.000000
  0.263158 -0.368421  0.105263      8.000000
  0.315789 -0.368421  0.105263      8.000000
  0.368421 -0.368421  0.105263      8.000000
  0.421053 -0.368421  0.105263      8.000000
  0.473684 -0.368421  0.105263      8.000000
  0.000000 -0.315789  0.105263      4.000000
  0.052632 -0.315789  0.105263      8.000000
  0.105263 -0.315789  0.105263      8.000000
  0.157895 -0.315789  0.105263      8.000000
  0.210526 -0.315789  0.105263      8.000000
  0.263158 -0.315789  0.105263      8.000000
  0.315789 -0.315789  0.105263      8.000000
  0.368421 -0.315789  0.105263      8.000000
  0.421053 -0.315789  0.105263      8.000000
  0.473684 -0.315789  0.105263      8.000000
  0.000000 -0.263158  0.105263      4.000000
  0.052632 -0.263158  0.105263      8.000000
  0.105263 -0.263158  0.105263      8.000000
  0.157895 -0.263158  0.105263      8.000000
  0.210526 -0.263158  0.105263      8.000000
  0.263158 -0.263158  0.105263      8.000000
  0.315789 -0.263158  0.105263      8.000000
  0.368421 -0.263158  0.105263      8.000000
  0.421053 -0.263158  0.105263      8.000000
  0.473684 -0.263158  0.105263      8.000000
  0.000000 -0.210526  0.105263      4.000000
  0.052632 -0.210526  0.105263      8.000000
  0.105263 -0.210526  0.105263      8.000000
  0.157895 -0.210526  0.105263      8.000000
  0.210526 -0.210526  0.105263      8.000000
  0.263158 -0.210526  0.105263      8.000000
  0.315789 -0.210526  0.105263      8.000000
  0.368421 -0.210526  0.105263      8.000000
  0.421053 -0.210526  0.105263      8.000000
  0.473684 -0.210526  0.105263      8.000000
  0.000000 -0.157895  0.105263      4.000000
  0.052632 -0.157895  0.105263      8.000000
  0.105263 -0.157895  0.105263      8.000000
  0.157895 -0.157895  0.105263      8.000000
  0.210526 -0.157895  0.105263      8.000000
  0.263158 -0.157895  0.105263      8.000000
  0.315789 -0.157895  0.105263      8.000000
  0.368421 -0.157895  0.105263      8.000000
  0.421053 -0.157895  0.105263      8.000000
  0.473684 -0.157895  0.105263      8.000000
  0.000000 -0.105263  0.105263      2.000000
  0.052632 -0.105263  0.105263      4.000000
  0.105263 -0.105263  0.105263      4.000000
  0.157895 -0.105263  0.105263      4.000000
  0.210526 -0.105263  0.105263      4.000000
  0.263158 -0.105263  0.105263      4.000000
  0.315789 -0.105263  0.105263      4.000000
  0.368421 -0.105263  0.105263      4.000000
  0.421053 -0.105263  0.105263      4.000000
  0.473684 -0.105263  0.105263      4.000000
  0.000000  0.157895  0.157895      2.000000
  0.052632  0.157895  0.157895      4.000000
  0.105263  0.157895  0.157895      4.000000
  0.157895  0.157895  0.157895      4.000000
  0.210526  0.157895  0.157895      4.000000
  0.263158  0.157895  0.157895      4.000000
  0.315789  0.157895  0.157895      4.000000
  0.368421  0.157895  0.157895      4.000000
  0.421053  0.157895  0.157895      4.000000
  0.473684  0.157895  0.157895      4.000000
  0.000000  0.210526  0.157895      4.000000
  0.052632  0.210526  0.157895      8.000000
  0.105263  0.210526  0.157895      8.000000
  0.157895  0.210526  0.157895      8.000000
  0.210526  0.210526  0.157895      8.000000
  0.263158  0.210526  0.157895      8.000000
  0.315789  0.210526  0.157895      8.000000
  0.368421  0.210526  0.157895      8.000000
  0.421053  0.210526  0.157895      8.000000
  0.473684  0.210526  0.157895      8.000000
  0.000000  0.263158  0.157895      4.000000
  0.052632  0.263158  0.157895      8.000000
  0.105263  0.263158  0.157895      8.000000
  0.157895  0.263158  0.157895      8.000000
  0.210526  0.263158  0.157895      8.000000
  0.263158  0.263158  0.157895      8.000000
  0.315789  0.263158  0.157895      8.000000
  0.368421  0.263158  0.157895      8.000000
  0.421053  0.263158  0.157895      8.000000
  0.473684  0.263158  0.157895      8.000000
  0.000000  0.315789  0.157895      4.000000
  0.052632  0.315789  0.157895      8.000000
  0.105263  0.315789  0.157895      8.000000
  0.157895  0.315789  0.157895      8.000000
  0.210526  0.315789  0.157895      8.000000
  0.263158  0.315789  0.157895      8.000000
  0.315789  0.315789  0.157895      8.000000
  0.368421  0.315789  0.157895      8.000000
  0.421053  0.315789  0.157895      8.000000
  0.473684  0.315789  0.157895      8.000000
  0.000000  0.368421  0.157895      4.000000
  0.052632  0.368421  0.157895      8.000000
  0.105263  0.368421  0.157895      8.000000
  0.157895  0.368421  0.157895      8.000000
  0.210526  0.368421  0.157895      8.000000
  0.263158  0.368421  0.157895      8.000000
  0.315789  0.368421  0.157895      8.000000
  0.368421  0.368421  0.157895      8.000000
  0.421053  0.368421  0.157895      8.000000
  0.473684  0.368421  0.157895      8.000000
  0.000000  0.421053  0.157895      4.000000
  0.052632  0.421053  0.157895      8.000000
  0.105263  0.421053  0.157895      8.000000
  0.157895  0.421053  0.157895      8.000000
  0.210526  0.421053  0.157895      8.000000
  0.263158  0.421053  0.157895      8.000000
  0.315789  0.421053  0.157895      8.000000
  0.368421  0.421053  0.157895      8.000000
  0.421053  0.421053  0.157895      8.000000
  0.473684  0.421053  0.157895      8.000000
  0.000000  0.473684  0.157895      4.000000
  0.052632  0.473684  0.157895      8.000000
  0.105263  0.473684  0.157895      8.000000
  0.157895  0.473684  0.157895      8.000000
  0.210526  0.473684  0.157895      8.000000
  0.263158  0.473684  0.157895      8.000000
  0.315789  0.473684  0.157895      8.000000
  0.368421  0.473684  0.157895      8.000000
  0.421053  0.473684  0.157895      8.000000
  0.473684  0.473684  0.157895      8.000000
  0.000000 -0.473684  0.157895      4.000000
  0.052632 -0.473684  0.157895      8.000000
  0.105263 -0.473684  0.157895      8.000000
  0.157895 -0.473684  0.157895      8.000000
  0.210526 -0.473684  0.157895      8.000000
  0.263158 -0.473684  0.157895      8.000000
  0.315789 -0.473684  0.157895      8.000000
  0.368421 -0.473684  0.157895      8.000000
  0.421053 -0.473684  0.157895      8.000000
  0.473684 -0.473684  0.157895      8.000000
  0.000000 -0.421053  0.157895      4.000000
  0.052632 -0.421053  0.157895      8.000000
  0.105263 -0.421053  0.157895      8.000000
  0.157895 -0.421053  0.157895      8.000000
  0.210526 -0.421053  0.157895      8.000000
  0.263158 -0.421053  0.157895      8.000000
  0.315789 -0.421053  0.157895      8.000000
  0.368421 -0.421053  0.157895      8.000000
  0.421053 -0.421053  0.157895      8.000000
  0.473684 -0.421053  0.157895      8.000000
  0.000000 -0.368421  0.157895      4.000000
  0.052632 -0.368421  0.157895      8.000000
  0.105263 -0.368421  0.157895      8.000000
  0.157895 -0.368421  0.157895      8.000000
  0.210526 -0.368421  0.157895      8.000000
  0.263158 -0.368421  0.157895      8.000000
  0.315789 -0.368421  0.157895      8.000000
  0.368421 -0.368421  0.157895      8.000000
  0.421053 -0.368421  0.157895      8.000000
  0.473684 -0.368421  0.157895      8.000000
  0.000000 -0.315789  0.157895      4.000000
  0.052632 -0.315789  0.157895      8.000000
  0.105263 -0.315789  0.157895      8.000000
  0.157895 -0.315789  0.157895      8.000000
  0.210526 -0.315789  0.157895      8.000000
  0.263158 -0.315789  0.157895      8.000000
  0.315789 -0.315789  0.157895      8.000000
  0.368421 -0.315789  0.157895      8.000000
  0.421053 -0.315789  0.157895      8.000000
  0.473684 -0.315789  0.157895      8.000000
  0.000000 -0.263158  0.157895      4.000000
  0.052632 -0.263158  0.157895      8.000000
  0.105263 -0.263158  0.157895      8.000000
  0.157895 -0.263158  0.157895      8.000000
  0.210526 -0.263158  0.157895      8.000000
  0.263158 -0.263158  0.157895      8.000000
  0.315789 -0.263158  0.157895      8.000000
  0.368421 -0.263158  0.157895      8.000000
  0.421053 -0.263158  0.157895      8.000000
  0.473684 -0.263158  0.157895      8.000000
  0.000000 -0.210526  0.157895      4.000000
  0.052632 -0.210526  0.157895      8.000000
  0.105263 -0.210526  0.157895      8.000000
  0.157895 -0.210526  0.157895      8.000000
  0.210526 -0.210526  0.157895      8.000000
  0.263158 -0.210526  0.157895      8.000000
  0.315789 -0.210526  0.157895      8.000000
  0.368421 -0.210526  0.157895      8.000000
  0.421053 -0.210526  0.157895      8.000000
  0.473684 -0.210526  0.157895      8.000000
  0.000000 -0.157895  0.157895      2.000000
  0.052632 -0.157895  0.157895      4.000000
  0.105263 -0.157895  0.157895      4.000000
  0.157895 -0.157895  0.157895      4.000000
  0.210526 -0.157895  0.157895      4.000000
  0.263158 -0.157895  0.157895      4.000000
  0.315789 -0.157895  0.157895      4.000000
  0.368421 -0.157895  0.157895      4.000000
  0.421053 -0.157895  0.157895      4.000000
  0.473684 -0.157895  0.157895      4.000000
  0.000000  0.210526  0.210526      2.000000
  0.052632  0.210526  0.210526      4.000000
  0.105263  0.210526  0.210526      4.000000
  0.157895  0.210526  0.210526      4.000000
  0.210526  0.210526  0.210526      4.000000
  0.263158  0.210526  0.210526      4.000000
  0.315789  0.210526  0.210526      4.000000
  0.368421  0.210526  0.210526      4.000000
  0.421053  0.210526  0.210526      4.000000
  0.473684  0.210526  0.210526      4.000000
  0.000000  0.263158  0.210526      4.000000
  0.052632  0.263158  0.210526      8.000000
  0.105263  0.263158  0.210526      8.000000
  0.157895  0.263158  0.210526      8.000000
  0.210526  0.263158  0.210526      8.000000
  0.263158  0.263158  0.210526      8.000000
  0.315789  0.263158  0.210526      8.000000
  0.368421  0.263158  0.210526      8.000000
  0.421053  0.263158  0.210526      8.000000
  0.473684  0.263158  0.210526      8.000000
  0.000000  0.315789  0.210526      4.000000
  0.052632  0.315789  0.210526      8.000000
  0.105263  0.315789  0.210526      8.000000
  0.157895  0.315789  0.210526      8.000000
  0.210526  0.315789  0.210526      8.000000
  0.263158  0.315789  0.210526      8.000000
  0.315789  0.315789  0.210526      8.000000
  0.368421  0.315789  0.210526      8.000000
  0.421053  0.315789  0.210526      8.000000
  0.473684  0.315789  0.210526      8.000000
  0.000000  0.368421  0.210526      4.000000
  0.052632  0.368421  0.210526      8.000000
  0.105263  0.368421  0.210526      8.000000
  0.157895  0.368421  0.210526      8.000000
  0.210526  0.368421  0.210526      8.000000
  0.263158  0.368421  0.210526      8.000000
  0.315789  0.368421  0.210526      8.000000
  0.368421  0.368421  0.210526      8.000000
  0.421053  0.368421  0.210526      8.000000
  0.473684  0.368421  0.210526      8.000000
  0.000000  0.421053  0.210526      4.000000
  0.052632  0.421053  0.210526      8.000000
  0.105263  0.421053  0.210526      8.000000
  0.157895  0.421053  0.210526      8.000000
  0.210526  0.421053  0.210526      8.000000
  0.263158  0.421053  0.210526      8.000000
  0.315789  0.421053  0.210526      8.000000
  0.368421  0.421053  0.210526      8.000000
  0.421053  0.421053  0.210526      8.000000
  0.473684  0.421053  0.210526      8.000000
  0.000000  0.473684  0.210526      4.000000
  0.052632  0.473684  0.210526      8.000000
  0.105263  0.473684  0.210526      8.000000
  0.157895  0.473684  0.210526      8.000000
  0.210526  0.473684  0.210526      8.000000
  0.263158  0.473684  0.210526      8.000000
  0.315789  0.473684  0.210526      8.000000
  0.368421  0.473684  0.210526      8.000000
  0.421053  0.473684  0.210526      8.000000
  0.473684  0.473684  0.210526      8.000000
  0.000000 -0.473684  0.210526      4.000000
  0.052632 -0.473684  0.210526      8.000000
  0.105263 -0.473684  0.210526      8.000000
  0.157895 -0.473684  0.210526      8.000000
  0.210526 -0.473684  0.210526      8.000000
  0.263158 -0.473684  0.210526      8.000000
  0.315789 -0.473684  0.210526      8.000000
  0.368421 -0.473684  0.210526      8.000000
  0.421053 -0.473684  0.210526      8.000000
  0.473684 -0.473684  0.210526      8.000000
  0.000000 -0.421053  0.210526      4.000000
  0.052632 -0.421053  0.210526      8.000000
  0.105263 -0.421053  0.210526      8.000000
  0.157895 -0.421053  0.210526      8.000000
  0.210526 -0.421053  0.210526      8.000000
  0.263158 -0.421053  0.210526      8.000000
  0.315789 -0.421053  0.210526      8.000000
  0.368421 -0.421053  0.210526      8.000000
  0.421053 -0.421053  0.210526      8.000000
  0.473684 -0.421053  0.210526      8.000000
  0.000000 -0.368421  0.210526      4.000000
  0.052632 -0.368421  0.210526      8.000000
  0.105263 -0.368421  0.210526      8.000000
  0.157895 -0.368421  0.210526      8.000000
  0.210526 -0.368421  0.210526      8.000000
  0.263158 -0.368421  0.210526      8.000000
  0.315789 -0.368421  0.210526      8.000000
  0.368421 -0.368421  0.210526      8.000000
  0.421053 -0.368421  0.210526      8.000000
  0.473684 -0.368421  0.210526      8.000000
  0.000000 -0.315789  0.210526      4.000000
  0.052632 -0.315789  0.210526      8.000000
  0.105263 -0.315789  0.210526      8.000000
  0.157895 -0.315789  0.210526      8.000000
  0.210526 -0.315789  0.210526      8.000000
  0.263158 -0.315789  0.210526      8.000000
  0.315789 -0.315789  0.210526      8.000000
  0.368421 -0.315789  0.210526      8.000000
  0.421053 -0.315789  0.210526      8.000000
  0.473684 -0.315789  0.210526      8.000000
  0.000000 -0.263158  0.210526      4.000000
  0.052632 -0.263158  0.210526      8.000000
  0.105263 -0.263158  0.210526      8.000000
  0.157895 -0.263158  0.210526      8.000000
  0.210526 -0.263158  0.210526      8.000000
  0.263158 -0.263158  0.210526      8.000000
  0.315789 -0.263158  0.210526      8.000000
  0.368421 -0.263158  0.210526      8.000000
  0.421053 -0.263158  0.210526      8.000000
  0.473684 -0.263158  0.210526      8.000000
  0.000000 -0.210526  0.210526      2.000000
  0.052632 -0.210526  0.210526      4.000000
  0.105263 -0.210526  0.210526      4.000000
  0.157895 -0.210526  0.210526      4.000000
  0.210526 -0.210526  0.210526      4.000000
  0.263158 -0.210526  0.210526      4.000000
  0.315789 -0.210526  0.210526      4.000000
  0.368421 -0.210526  0.210526      4.000000
  0.421053 -0.210526  0.210526      4.000000
  0.473684 -0.210526  0.210526      4.000000
  0.000000  0.263158  0.263158      2.000000
  0.052632  0.263158  0.263158      4.000000
  0.105263  0.263158  0.263158      4.000000
  0.157895  0.263158  0.263158      4.000000
  0.210526  0.263158  0.263158      4.000000
  0.263158  0.263158  0.263158      4.000000
  0.315789  0.263158  0.263158      4.000000
  0.368421  0.263158  0.263158      4.000000
  0.421053  0.263158  0.263158      4.000000
  0.473684  0.263158  0.263158      4.000000
  0.000000  0.315789  0.263158      4.000000
  0.052632  0.315789  0.263158      8.000000
  0.105263  0.315789  0.263158      8.000000
  0.157895  0.315789  0.263158      8.000000
  0.210526  0.315789  0.263158      8.000000
  0.263158  0.315789  0.263158      8.000000
  0.315789  0.315789  0.263158      8.000000
  0.368421  0.315789  0.263158      8.000000
  0.421053  0.315789  0.263158      8.000000
  0.473684  0.315789  0.263158      8.000000
  0.000000  0.368421  0.263158      4.000000
  0.052632  0.368421  0.263158      8.000000
  0.105263  0.368421  0.263158      8.000000
  0.157895  0.368421  0.263158      8.000000
  0.210526  0.368421  0.263158      8.000000
  0.263158  0.368421  0.263158      8.000000
  0.315789  0.368421  0.263158      8.000000
  0.368421  0.368421  0.263158      8.000000
  0.421053  0.368421  0.263158      8.000000
  0.473684  0.368421  0.263158      8.000000
  0.000000  0.421053  0.263158      4.000000
  0.052632  0.421053  0.263158      8.000000
  0.105263  0.421053  0.263158      8.000000
  0.157895  0.421053  0.263158      8.000000
  0.210526  0.421053  0.263158      8.000000
  0.263158  0.421053  0.263158      8.000000
  0.315789  0.421053  0.263158      8.000000
  0.368421  0.421053  0.263158      8.000000
  0.421053  0.421053  0.263158      8.000000
  0.473684  0.421053  0.263158      8.000000
  0.000000  0.473684  0.263158      4.000000
  0.052632  0.473684  0.263158      8.000000
  0.105263  0.473684  0.263158      8.000000
  0.157895  0.473684  0.263158      8.000000
  0.210526  0.473684  0.263158      8.000000
  0.263158  0.473684  0.263158      8.000000
  0.315789  0.473684  0.263158      8.000000
  0.368421  0.473684  0.263158      8.000000
  0.421053  0.473684  0.263158      8.000000
  0.473684  0.473684  0.263158      8.000000
  0.000000 -0.473684  0.263158      4.000000
  0.052632 -0.473684  0.263158      8.000000
  0.105263 -0.473684  0.263158      8.000000
  0.157895 -0.473684  0.263158      8.000000
  0.210526 -0.473684  0.263158      8.000000
  0.263158 -0.473684  0.263158      8.000000
  0.315789 -0.473684  0.263158      8.000000
  0.368421 -0.473684  0.263158      8.000000
  0.421053 -0.473684  0.263158      8.000000
  0.473684 -0.473684  0.263158      8.000000
  0.000000 -0.421053  0.263158      4.000000
  0.052632 -0.421053  0.263158      8.000000
  0.105263 -0.421053  0.263158      8.000000
  0.157895 -0.421053  0.263158      8.000000
  0.210526 -0.421053  0.263158      8.000000
  0.263158 -0.421053  0.263158      8.000000
  0.315789 -0.421053  0.263158      8.000000
  0.368421 -0.421053  0.263158      8.000000
  0.421053 -0.421053  0.263158      8.000000
  0.473684 -0.421053  0.263158      8.000000
  0.000000 -0.368421  0.263158      4.000000
  0.052632 -0.368421  0.263158      8.000000
  0.105263 -0.368421  0.263158      8.000000
  0.157895 -0.368421  0.263158      8.000000
  0.210526 -0.368421  0.263158      8.000000
  0.263158 -0.368421  0.263158      8.000000
  0.315789 -0.368421  0.263158      8.000000
  0.368421 -0.368421  0.263158      8.000000
  0.421053 -0.368421  0.263158      8.000000
  0.473684 -0.368421  0.263158      8.000000
  0.000000 -0.315789  0.263158      4.000000
  0.052632 -0.315789  0.263158      8.000000
  0.105263 -0.315789  0.263158      8.000000
  0.157895 -0.315789  0.263158      8.000000
  0.210526 -0.315789  0.263158      8.000000
  0.263158 -0.315789  0.263158      8.000000
  0.315789 -0.315789  0.263158      8.000000
  0.368421 -0.315789  0.263158      8.000000
  0.421053 -0.315789  0.263158      8.000000
  0.473684 -0.315789  0.263158      8.000000
  0.000000 -0.263158  0.263158      2.000000
  0.052632 -0.263158  0.263158      4.000000
  0.105263 -0.263158  0.263158      4.000000
  0.157895 -0.263158  0.263158      4.000000
  0.210526 -0.263158  0.263158      4.000000
  0.263158 -0.263158  0.263158      4.000000
  0.315789 -0.263158  0.263158      4.000000
  0.368421 -0.263158  0.263158      4.000000
  0.421053 -0.263158  0.263158      4.000000
  0.473684 -0.263158  0.263158      4.000000
  0.000000  0.315789  0.315789      2.000000
  0.052632  0.315789  0.315789      4.000000
  0.105263  0.315789  0.315789      4.000000
  0.157895  0.315789  0.315789      4.000000
  0.210526  0.315789  0.315789      4.000000
  0.263158  0.315789  0.315789      4.000000
  0.315789  0.315789  0.315789      4.000000
  0.368421  0.315789  0.315789      4.000000
  0.421053  0.315789  0.315789      4.000000
  0.473684  0.315789  0.315789      4.000000
  0.000000  0.368421  0.315789      4.000000
  0.052632  0.368421  0.315789      8.000000
  0.105263  0.368421  0.315789      8.000000
  0.157895  0.368421  0.315789      8.000000
  0.210526  0.368421  0.315789      8.000000
  0.263158  0.368421  0.315789      8.000000
  0.315789  0.368421  0.315789      8.000000
  0.368421  0.368421  0.315789      8.000000
  0.421053  0.368421  0.315789      8.000000
  0.473684  0.368421  0.315789      8.000000
  0.000000  0.421053  0.315789      4.000000
  0.052632  0.421053  0.315789      8.000000
  0.105263  0.421053  0.315789      8.000000
  0.157895  0.421053  0.315789      8.000000
  0.210526  0.421053  0.315789      8.000000
  0.263158  0.421053  0.315789      8.000000
  0.315789  0.421053  0.315789      8.000000
  0.368421  0.421053  0.315789      8.000000
  0.421053  0.421053  0.315789      8.000000
  0.473684  0.421053  0.315789      8.000000
  0.000000  0.473684  0.315789      4.000000
  0.052632  0.473684  0.315789      8.000000
  0.105263  0.473684  0.315789      8.000000
  0.157895  0.473684  0.315789      8.000000
  0.210526  0.473684  0.315789      8.000000
  0.263158  0.473684  0.315789      8.000000
  0.315789  0.473684  0.315789      8.000000
  0.368421  0.473684  0.315789      8.000000
  0.421053  0.473684  0.315789      8.000000
  0.473684  0.473684  0.315789      8.000000
  0.000000 -0.473684  0.315789      4.000000
  0.052632 -0.473684  0.315789      8.000000
  0.105263 -0.473684  0.315789      8.000000
  0.157895 -0.473684  0.315789      8.000000
  0.210526 -0.473684  0.315789      8.000000
  0.263158 -0.473684  0.315789      8.000000
  0.315789 -0.473684  0.315789      8.000000
  0.368421 -0.473684  0.315789      8.000000
  0.421053 -0.473684  0.315789      8.000000
  0.473684 -0.473684  0.315789      8.000000
  0.000000 -0.421053  0.315789      4.000000
  0.052632 -0.421053  0.315789      8.000000
  0.105263 -0.421053  0.315789      8.000000
  0.157895 -0.421053  0.315789      8.000000
  0.210526 -0.421053  0.315789      8.000000
  0.263158 -0.421053  0.315789      8.000000
  0.315789 -0.421053  0.315789      8.000000
  0.368421 -0.421053  0.315789      8.000000
  0.421053 -0.421053  0.315789      8.000000
  0.473684 -0.421053  0.315789      8.000000
  0.000000 -0.368421  0.315789      4.000000
  0.052632 -0.368421  0.315789      8.000000
  0.105263 -0.368421  0.315789      8.000000
  0.157895 -0.368421  0.315789      8.000000
  0.210526 -0.368421  0.315789      8.000000
  0.263158 -0.368421  0.315789      8.000000
  0.315789 -0.368421  0.315789      8.000000
  0.368421 -0.368421  0.315789      8.000000
  0.421053 -0.368421  0.315789      8.000000
  0.473684 -0.368421  0.315789      8.000000
  0.000000 -0.315789  0.315789      2.000000
  0.052632 -0.315789  0.315789      4.000000
  0.105263 -0.315789  0.315789      4.000000
  0.157895 -0.315789  0.315789      4.000000
  0.210526 -0.315789  0.315789      4.000000
  0.263158 -0.315789  0.315789      4.000000
  0.315789 -0.315789  0.315789      4.000000
  0.368421 -0.315789  0.315789      4.000000
  0.421053 -0.315789  0.315789      4.000000
  0.473684 -0.315789  0.315789      4.000000
  0.000000  0.368421  0.368421      2.000000
  0.052632  0.368421  0.368421      4.000000
  0.105263  0.368421  0.368421      4.000000
  0.157895  0.368421  0.368421      4.000000
  0.210526  0.368421  0.368421      4.000000
  0.263158  0.368421  0.368421      4.000000
  0.315789  0.368421  0.368421      4.000000
  0.368421  0.368421  0.368421      4.000000
  0.421053  0.368421  0.368421      4.000000
  0.473684  0.368421  0.368421      4.000000
  0.000000  0.421053  0.368421      4.000000
  0.052632  0.421053  0.368421      8.000000
  0.105263  0.421053  0.368421      8.000000
  0.157895  0.421053  0.368421      8.000000
  0.210526  0.421053  0.368421      8.000000
  0.263158  0.421053  0.368421      8.000000
  0.315789  0.421053  0.368421      8.000000
  0.368421  0.421053  0.368421      8.000000
  0.421053  0.421053  0.368421      8.000000
  0.473684  0.421053  0.368421      8.000000
  0.000000  0.473684  0.368421      4.000000
  0.052632  0.473684  0.368421      8.000000
  0.105263  0.473684  0.368421      8.000000
  0.157895  0.473684  0.368421      8.000000
  0.210526  0.473684  0.368421      8.000000
  0.263158  0.473684  0.368421      8.000000
  0.315789  0.473684  0.368421      8.000000
  0.368421  0.473684  0.368421      8.000000
  0.421053  0.473684  0.368421      8.000000
  0.473684  0.473684  0.368421      8.000000
  0.000000 -0.473684  0.368421      4.000000
  0.052632 -0.473684  0.368421      8.000000
  0.105263 -0.473684  0.368421      8.000000
  0.157895 -0.473684  0.368421      8.000000
  0.210526 -0.473684  0.368421      8.000000
  0.263158 -0.473684  0.368421      8.000000
  0.315789 -0.473684  0.368421      8.000000
  0.368421 -0.473684  0.368421      8.000000
  0.421053 -0.473684  0.368421      8.000000
  0.473684 -0.473684  0.368421      8.000000
  0.000000 -0.421053  0.368421      4.000000
  0.052632 -0.421053  0.368421      8.000000
  0.105263 -0.421053  0.368421      8.000000
  0.157895 -0.421053  0.368421      8.000000
  0.210526 -0.421053  0.368421      8.000000
  0.263158 -0.421053  0.368421      8.000000
  0.315789 -0.421053  0.368421      8.000000
  0.368421 -0.421053  0.368421      8.000000
  0.421053 -0.421053  0.368421      8.000000
  0.473684 -0.421053  0.368421      8.000000
  0.000000 -0.368421  0.368421      2.000000
  0.052632 -0.368421  0.368421      4.000000
  0.105263 -0.368421  0.368421      4.000000
  0.157895 -0.368421  0.368421      4.000000
  0.210526 -0.368421  0.368421      4.000000
  0.263158 -0.368421  0.368421      4.000000
  0.315789 -0.368421  0.368421      4.000000
  0.368421 -0.368421  0.368421      4.000000
  0.421053 -0.368421  0.368421      4.000000
  0.473684 -0.368421  0.368421      4.000000
  0.000000  0.421053  0.421053      2.000000
  0.052632  0.421053  0.421053      4.000000
  0.105263  0.421053  0.421053      4.000000
  0.157895  0.421053  0.421053      4.000000
  0.210526  0.421053  0.421053      4.000000
  0.263158  0.421053  0.421053      4.000000
  0.315789  0.421053  0.421053      4.000000
  0.368421  0.421053  0.421053      4.000000
  0.421053  0.421053  0.421053      4.000000
  0.473684  0.421053  0.421053      4.000000
  0.000000  0.473684  0.421053      4.000000
  0.052632  0.473684  0.421053      8.000000
  0.105263  0.473684  0.421053      8.000000
  0.157895  0.473684  0.421053      8.000000
  0.210526  0.473684  0.421053      8.000000
  0.263158  0.473684  0.421053      8.000000
  0.315789  0.473684  0.421053      8.000000
  0.368421  0.473684  0.421053      8.000000
  0.421053  0.473684  0.421053      8.000000
  0.473684  0.473684  0.421053      8.000000
  0.000000 -0.473684  0.421053      4.000000
  0.052632 -0.473684  0.421053      8.000000
  0.105263 -0.473684  0.421053      8.000000
  0.157895 -0.473684  0.421053      8.000000
  0.210526 -0.473684  0.421053      8.000000
  0.263158 -0.473684  0.421053      8.000000
  0.315789 -0.473684  0.421053      8.000000
  0.368421 -0.473684  0.421053      8.000000
  0.421053 -0.473684  0.421053      8.000000
  0.473684 -0.473684  0.421053      8.000000
  0.000000 -0.421053  0.421053      2.000000
  0.052632 -0.421053  0.421053      4.000000
  0.105263 -0.421053  0.421053      4.000000
  0.157895 -0.421053  0.421053      4.000000
  0.210526 -0.421053  0.421053      4.000000
  0.263158 -0.421053  0.421053      4.000000
  0.315789 -0.421053  0.421053      4.000000
  0.368421 -0.421053  0.421053      4.000000
  0.421053 -0.421053  0.421053      4.000000
  0.473684 -0.421053  0.421053      4.000000
  0.000000  0.473684  0.473684      2.000000
  0.052632  0.473684  0.473684      4.000000
  0.105263  0.473684  0.473684      4.000000
  0.157895  0.473684  0.473684      4.000000
  0.210526  0.473684  0.473684      4.000000
  0.263158  0.473684  0.473684      4.000000
  0.315789  0.473684  0.473684      4.000000
  0.368421  0.473684  0.473684      4.000000
  0.421053  0.473684  0.473684      4.000000
  0.473684  0.473684  0.473684      4.000000
  0.000000 -0.473684  0.473684      2.000000
  0.052632 -0.473684  0.473684      4.000000
  0.105263 -0.473684  0.473684      4.000000
  0.157895 -0.473684  0.473684      4.000000
  0.210526 -0.473684  0.473684      4.000000
  0.263158 -0.473684  0.473684      4.000000
  0.315789 -0.473684  0.473684      4.000000
  0.368421 -0.473684  0.473684      4.000000
  0.421053 -0.473684  0.473684      4.000000
  0.473684 -0.473684  0.473684      4.000000
 
 Following cartesian coordinates:
            Coordinates               Weight
  0.000000  0.000000  0.000000      1.000000
  0.052632  0.000000  0.000000      2.000000
  0.105263  0.000000  0.000000      2.000000
  0.157895  0.000000  0.000000      2.000000
  0.210526  0.000000  0.000000      2.000000
  0.263158  0.000000  0.000000      2.000000
  0.315789  0.000000  0.000000      2.000000
  0.368421  0.000000  0.000000      2.000000
  0.421053  0.000000  0.000000      2.000000
  0.473684  0.000000  0.000000      2.000000
  0.000000  0.052632  0.000000      4.000000
  0.052632  0.052632  0.000000      8.000000
  0.105263  0.052632  0.000000      8.000000
  0.157895  0.052632  0.000000      8.000000
  0.210526  0.052632  0.000000      8.000000
  0.263158  0.052632  0.000000      8.000000
  0.315789  0.052632  0.000000      8.000000
  0.368421  0.052632  0.000000      8.000000
  0.421053  0.052632  0.000000      8.000000
  0.473684  0.052632  0.000000      8.000000
  0.000000  0.105263  0.000000      4.000000
  0.052632  0.105263  0.000000      8.000000
  0.105263  0.105263  0.000000      8.000000
  0.157895  0.105263  0.000000      8.000000
  0.210526  0.105263  0.000000      8.000000
  0.263158  0.105263  0.000000      8.000000
  0.315789  0.105263  0.000000      8.000000
  0.368421  0.105263  0.000000      8.000000
  0.421053  0.105263  0.000000      8.000000
  0.473684  0.105263  0.000000      8.000000
  0.000000  0.157895  0.000000      4.000000
  0.052632  0.157895  0.000000      8.000000
  0.105263  0.157895  0.000000      8.000000
  0.157895  0.157895  0.000000      8.000000
  0.210526  0.157895  0.000000      8.000000
  0.263158  0.157895  0.000000      8.000000
  0.315789  0.157895  0.000000      8.000000
  0.368421  0.157895  0.000000      8.000000
  0.421053  0.157895  0.000000      8.000000
  0.473684  0.157895  0.000000      8.000000
  0.000000  0.210526  0.000000      4.000000
  0.052632  0.210526  0.000000      8.000000
  0.105263  0.210526  0.000000      8.000000
  0.157895  0.210526  0.000000      8.000000
  0.210526  0.210526  0.000000      8.000000
  0.263158  0.210526  0.000000      8.000000
  0.315789  0.210526  0.000000      8.000000
  0.368421  0.210526  0.000000      8.000000
  0.421053  0.210526  0.000000      8.000000
  0.473684  0.210526  0.000000      8.000000
  0.000000  0.263158  0.000000      4.000000
  0.052632  0.263158  0.000000      8.000000
  0.105263  0.263158  0.000000      8.000000
  0.157895  0.263158  0.000000      8.000000
  0.210526  0.263158  0.000000      8.000000
  0.263158  0.263158  0.000000      8.000000
  0.315789  0.263158  0.000000      8.000000
  0.368421  0.263158  0.000000      8.000000
  0.421053  0.263158  0.000000      8.000000
  0.473684  0.263158  0.000000      8.000000
  0.000000  0.315789  0.000000      4.000000
  0.052632  0.315789  0.000000      8.000000
  0.105263  0.315789  0.000000      8.000000
  0.157895  0.315789  0.000000      8.000000
  0.210526  0.315789  0.000000      8.000000
  0.263158  0.315789  0.000000      8.000000
  0.315789  0.315789  0.000000      8.000000
  0.368421  0.315789  0.000000      8.000000
  0.421053  0.315789  0.000000      8.000000
  0.473684  0.315789  0.000000      8.000000
  0.000000  0.368421  0.000000      4.000000
  0.052632  0.368421  0.000000      8.000000
  0.105263  0.368421  0.000000      8.000000
  0.157895  0.368421  0.000000      8.000000
  0.210526  0.368421  0.000000      8.000000
  0.263158  0.368421  0.000000      8.000000
  0.315789  0.368421  0.000000      8.000000
  0.368421  0.368421  0.000000      8.000000
  0.421053  0.368421  0.000000      8.000000
  0.473684  0.368421  0.000000      8.000000
  0.000000  0.421053  0.000000      4.000000
  0.052632  0.421053  0.000000      8.000000
  0.105263  0.421053  0.000000      8.000000
  0.157895  0.421053  0.000000      8.000000
  0.210526  0.421053  0.000000      8.000000
  0.263158  0.421053  0.000000      8.000000
  0.315789  0.421053  0.000000      8.000000
  0.368421  0.421053  0.000000      8.000000
  0.421053  0.421053  0.000000      8.000000
  0.473684  0.421053  0.000000      8.000000
  0.000000  0.473684  0.000000      4.000000
  0.052632  0.473684  0.000000      8.000000
  0.105263  0.473684  0.000000      8.000000
  0.157895  0.473684  0.000000      8.000000
  0.210526  0.473684  0.000000      8.000000
  0.263158  0.473684  0.000000      8.000000
  0.315789  0.473684  0.000000      8.000000
  0.368421  0.473684  0.000000      8.000000
  0.421053  0.473684  0.000000      8.000000
  0.473684  0.473684  0.000000      8.000000
  0.000000  0.052632  0.052632      2.000000
  0.052632  0.052632  0.052632      4.000000
  0.105263  0.052632  0.052632      4.000000
  0.157895  0.052632  0.052632      4.000000
  0.210526  0.052632  0.052632      4.000000
  0.263158  0.052632  0.052632      4.000000
  0.315789  0.052632  0.052632      4.000000
  0.368421  0.052632  0.052632      4.000000
  0.421053  0.052632  0.052632      4.000000
  0.473684  0.052632  0.052632      4.000000
  0.000000  0.105263  0.052632      4.000000
  0.052632  0.105263  0.052632      8.000000
  0.105263  0.105263  0.052632      8.000000
  0.157895  0.105263  0.052632      8.000000
  0.210526  0.105263  0.052632      8.000000
  0.263158  0.105263  0.052632      8.000000
  0.315789  0.105263  0.052632      8.000000
  0.368421  0.105263  0.052632      8.000000
  0.421053  0.105263  0.052632      8.000000
  0.473684  0.105263  0.052632      8.000000
  0.000000  0.157895  0.052632      4.000000
  0.052632  0.157895  0.052632      8.000000
  0.105263  0.157895  0.052632      8.000000
  0.157895  0.157895  0.052632      8.000000
  0.210526  0.157895  0.052632      8.000000
  0.263158  0.157895  0.052632      8.000000
  0.315789  0.157895  0.052632      8.000000
  0.368421  0.157895  0.052632      8.000000
  0.421053  0.157895  0.052632      8.000000
  0.473684  0.157895  0.052632      8.000000
  0.000000  0.210526  0.052632      4.000000
  0.052632  0.210526  0.052632      8.000000
  0.105263  0.210526  0.052632      8.000000
  0.157895  0.210526  0.052632      8.000000
  0.210526  0.210526  0.052632      8.000000
  0.263158  0.210526  0.052632      8.000000
  0.315789  0.210526  0.052632      8.000000
  0.368421  0.210526  0.052632      8.000000
  0.421053  0.210526  0.052632      8.000000
  0.473684  0.210526  0.052632      8.000000
  0.000000  0.263158  0.052632      4.000000
  0.052632  0.263158  0.052632      8.000000
  0.105263  0.263158  0.052632      8.000000
  0.157895  0.263158  0.052632      8.000000
  0.210526  0.263158  0.052632      8.000000
  0.263158  0.263158  0.052632      8.000000
  0.315789  0.263158  0.052632      8.000000
  0.368421  0.263158  0.052632      8.000000
  0.421053  0.263158  0.052632      8.000000
  0.473684  0.263158  0.052632      8.000000
  0.000000  0.315789  0.052632      4.000000
  0.052632  0.315789  0.052632      8.000000
  0.105263  0.315789  0.052632      8.000000
  0.157895  0.315789  0.052632      8.000000
  0.210526  0.315789  0.052632      8.000000
  0.263158  0.315789  0.052632      8.000000
  0.315789  0.315789  0.052632      8.000000
  0.368421  0.315789  0.052632      8.000000
  0.421053  0.315789  0.052632      8.000000
  0.473684  0.315789  0.052632      8.000000
  0.000000  0.368421  0.052632      4.000000
  0.052632  0.368421  0.052632      8.000000
  0.105263  0.368421  0.052632      8.000000
  0.157895  0.368421  0.052632      8.000000
  0.210526  0.368421  0.052632      8.000000
  0.263158  0.368421  0.052632      8.000000
  0.315789  0.368421  0.052632      8.000000
  0.368421  0.368421  0.052632      8.000000
  0.421053  0.368421  0.052632      8.000000
  0.473684  0.368421  0.052632      8.000000
  0.000000  0.421053  0.052632      4.000000
  0.052632  0.421053  0.052632      8.000000
  0.105263  0.421053  0.052632      8.000000
  0.157895  0.421053  0.052632      8.000000
  0.210526  0.421053  0.052632      8.000000
  0.263158  0.421053  0.052632      8.000000
  0.315789  0.421053  0.052632      8.000000
  0.368421  0.421053  0.052632      8.000000
  0.421053  0.421053  0.052632      8.000000
  0.473684  0.421053  0.052632      8.000000
  0.000000  0.473684  0.052632      4.000000
  0.052632  0.473684  0.052632      8.000000
  0.105263  0.473684  0.052632      8.000000
  0.157895  0.473684  0.052632      8.000000
  0.210526  0.473684  0.052632      8.000000
  0.263158  0.473684  0.052632      8.000000
  0.315789  0.473684  0.052632      8.000000
  0.368421  0.473684  0.052632      8.000000
  0.421053  0.473684  0.052632      8.000000
  0.473684  0.473684  0.052632      8.000000
  0.000000 -0.473684  0.052632      4.000000
  0.052632 -0.473684  0.052632      8.000000
  0.105263 -0.473684  0.052632      8.000000
  0.157895 -0.473684  0.052632      8.000000
  0.210526 -0.473684  0.052632      8.000000
  0.263158 -0.473684  0.052632      8.000000
  0.315789 -0.473684  0.052632      8.000000
  0.368421 -0.473684  0.052632      8.000000
  0.421053 -0.473684  0.052632      8.000000
  0.473684 -0.473684  0.052632      8.000000
  0.000000 -0.421053  0.052632      4.000000
  0.052632 -0.421053  0.052632      8.000000
  0.105263 -0.421053  0.052632      8.000000
  0.157895 -0.421053  0.052632      8.000000
  0.210526 -0.421053  0.052632      8.000000
  0.263158 -0.421053  0.052632      8.000000
  0.315789 -0.421053  0.052632      8.000000
  0.368421 -0.421053  0.052632      8.000000
  0.421053 -0.421053  0.052632      8.000000
  0.473684 -0.421053  0.052632      8.000000
  0.000000 -0.368421  0.052632      4.000000
  0.052632 -0.368421  0.052632      8.000000
  0.105263 -0.368421  0.052632      8.000000
  0.157895 -0.368421  0.052632      8.000000
  0.210526 -0.368421  0.052632      8.000000
  0.263158 -0.368421  0.052632      8.000000
  0.315789 -0.368421  0.052632      8.000000
  0.368421 -0.368421  0.052632      8.000000
  0.421053 -0.368421  0.052632      8.000000
  0.473684 -0.368421  0.052632      8.000000
  0.000000 -0.315789  0.052632      4.000000
  0.052632 -0.315789  0.052632      8.000000
  0.105263 -0.315789  0.052632      8.000000
  0.157895 -0.315789  0.052632      8.000000
  0.210526 -0.315789  0.052632      8.000000
  0.263158 -0.315789  0.052632      8.000000
  0.315789 -0.315789  0.052632      8.000000
  0.368421 -0.315789  0.052632      8.000000
  0.421053 -0.315789  0.052632      8.000000
  0.473684 -0.315789  0.052632      8.000000
  0.000000 -0.263158  0.052632      4.000000
  0.052632 -0.263158  0.052632      8.000000
  0.105263 -0.263158  0.052632      8.000000
  0.157895 -0.263158  0.052632      8.000000
  0.210526 -0.263158  0.052632      8.000000
  0.263158 -0.263158  0.052632      8.000000
  0.315789 -0.263158  0.052632      8.000000
  0.368421 -0.263158  0.052632      8.000000
  0.421053 -0.263158  0.052632      8.000000
  0.473684 -0.263158  0.052632      8.000000
  0.000000 -0.210526  0.052632      4.000000
  0.052632 -0.210526  0.052632      8.000000
  0.105263 -0.210526  0.052632      8.000000
  0.157895 -0.210526  0.052632      8.000000
  0.210526 -0.210526  0.052632      8.000000
  0.263158 -0.210526  0.052632      8.000000
  0.315789 -0.210526  0.052632      8.000000
  0.368421 -0.210526  0.052632      8.000000
  0.421053 -0.210526  0.052632      8.000000
  0.473684 -0.210526  0.052632      8.000000
  0.000000 -0.157895  0.052632      4.000000
  0.052632 -0.157895  0.052632      8.000000
  0.105263 -0.157895  0.052632      8.000000
  0.157895 -0.157895  0.052632      8.000000
  0.210526 -0.157895  0.052632      8.000000
  0.263158 -0.157895  0.052632      8.000000
  0.315789 -0.157895  0.052632      8.000000
  0.368421 -0.157895  0.052632      8.000000
  0.421053 -0.157895  0.052632      8.000000
  0.473684 -0.157895  0.052632      8.000000
  0.000000 -0.105263  0.052632      4.000000
  0.052632 -0.105263  0.052632      8.000000
  0.105263 -0.105263  0.052632      8.000000
  0.157895 -0.105263  0.052632      8.000000
  0.210526 -0.105263  0.052632      8.000000
  0.263158 -0.105263  0.052632      8.000000
  0.315789 -0.105263  0.052632      8.000000
  0.368421 -0.105263  0.052632      8.000000
  0.421053 -0.105263  0.052632      8.000000
  0.473684 -0.105263  0.052632      8.000000
  0.000000 -0.052632  0.052632      2.000000
  0.052632 -0.052632  0.052632      4.000000
  0.105263 -0.052632  0.052632      4.000000
  0.157895 -0.052632  0.052632      4.000000
  0.210526 -0.052632  0.052632      4.000000
  0.263158 -0.052632  0.052632      4.000000
  0.315789 -0.052632  0.052632      4.000000
  0.368421 -0.052632  0.052632      4.000000
  0.421053 -0.052632  0.052632      4.000000
  0.473684 -0.052632  0.052632      4.000000
  0.000000  0.105263  0.105263      2.000000
  0.052632  0.105263  0.105263      4.000000
  0.105263  0.105263  0.105263      4.000000
  0.157895  0.105263  0.105263      4.000000
  0.210526  0.105263  0.105263      4.000000
  0.263158  0.105263  0.105263      4.000000
  0.315789  0.105263  0.105263      4.000000
  0.368421  0.105263  0.105263      4.000000
  0.421053  0.105263  0.105263      4.000000
  0.473684  0.105263  0.105263      4.000000
  0.000000  0.157895  0.105263      4.000000
  0.052632  0.157895  0.105263      8.000000
  0.105263  0.157895  0.105263      8.000000
  0.157895  0.157895  0.105263      8.000000
  0.210526  0.157895  0.105263      8.000000
  0.263158  0.157895  0.105263      8.000000
  0.315789  0.157895  0.105263      8.000000
  0.368421  0.157895  0.105263      8.000000
  0.421053  0.157895  0.105263      8.000000
  0.473684  0.157895  0.105263      8.000000
  0.000000  0.210526  0.105263      4.000000
  0.052632  0.210526  0.105263      8.000000
  0.105263  0.210526  0.105263      8.000000
  0.157895  0.210526  0.105263      8.000000
  0.210526  0.210526  0.105263      8.000000
  0.263158  0.210526  0.105263      8.000000
  0.315789  0.210526  0.105263      8.000000
  0.368421  0.210526  0.105263      8.000000
  0.421053  0.210526  0.105263      8.000000
  0.473684  0.210526  0.105263      8.000000
  0.000000  0.263158  0.105263      4.000000
  0.052632  0.263158  0.105263      8.000000
  0.105263  0.263158  0.105263      8.000000
  0.157895  0.263158  0.105263      8.000000
  0.210526  0.263158  0.105263      8.000000
  0.263158  0.263158  0.105263      8.000000
  0.315789  0.263158  0.105263      8.000000
  0.368421  0.263158  0.105263      8.000000
  0.421053  0.263158  0.105263      8.000000
  0.473684  0.263158  0.105263      8.000000
  0.000000  0.315789  0.105263      4.000000
  0.052632  0.315789  0.105263      8.000000
  0.105263  0.315789  0.105263      8.000000
  0.157895  0.315789  0.105263      8.000000
  0.210526  0.315789  0.105263      8.000000
  0.263158  0.315789  0.105263      8.000000
  0.315789  0.315789  0.105263      8.000000
  0.368421  0.315789  0.105263      8.000000
  0.421053  0.315789  0.105263      8.000000
  0.473684  0.315789  0.105263      8.000000
  0.000000  0.368421  0.105263      4.000000
  0.052632  0.368421  0.105263      8.000000
  0.105263  0.368421  0.105263      8.000000
  0.157895  0.368421  0.105263      8.000000
  0.210526  0.368421  0.105263      8.000000
  0.263158  0.368421  0.105263      8.000000
  0.315789  0.368421  0.105263      8.000000
  0.368421  0.368421  0.105263      8.000000
  0.421053  0.368421  0.105263      8.000000
  0.473684  0.368421  0.105263      8.000000
  0.000000  0.421053  0.105263      4.000000
  0.052632  0.421053  0.105263      8.000000
  0.105263  0.421053  0.105263      8.000000
  0.157895  0.421053  0.105263      8.000000
  0.210526  0.421053  0.105263      8.000000
  0.263158  0.421053  0.105263      8.000000
  0.315789  0.421053  0.105263      8.000000
  0.368421  0.421053  0.105263      8.000000
  0.421053  0.421053  0.105263      8.000000
  0.473684  0.421053  0.105263      8.000000
  0.000000  0.473684  0.105263      4.000000
  0.052632  0.473684  0.105263      8.000000
  0.105263  0.473684  0.105263      8.000000
  0.157895  0.473684  0.105263      8.000000
  0.210526  0.473684  0.105263      8.000000
  0.263158  0.473684  0.105263      8.000000
  0.315789  0.473684  0.105263      8.000000
  0.368421  0.473684  0.105263      8.000000
  0.421053  0.473684  0.105263      8.000000
  0.473684  0.473684  0.105263      8.000000
  0.000000 -0.473684  0.105263      4.000000
  0.052632 -0.473684  0.105263      8.000000
  0.105263 -0.473684  0.105263      8.000000
  0.157895 -0.473684  0.105263      8.000000
  0.210526 -0.473684  0.105263      8.000000
  0.263158 -0.473684  0.105263      8.000000
  0.315789 -0.473684  0.105263      8.000000
  0.368421 -0.473684  0.105263      8.000000
  0.421053 -0.473684  0.105263      8.000000
  0.473684 -0.473684  0.105263      8.000000
  0.000000 -0.421053  0.105263      4.000000
  0.052632 -0.421053  0.105263      8.000000
  0.105263 -0.421053  0.105263      8.000000
  0.157895 -0.421053  0.105263      8.000000
  0.210526 -0.421053  0.105263      8.000000
  0.263158 -0.421053  0.105263      8.000000
  0.315789 -0.421053  0.105263      8.000000
  0.368421 -0.421053  0.105263      8.000000
  0.421053 -0.421053  0.105263      8.000000
  0.473684 -0.421053  0.105263      8.000000
  0.000000 -0.368421  0.105263      4.000000
  0.052632 -0.368421  0.105263      8.000000
  0.105263 -0.368421  0.105263      8.000000
  0.157895 -0.368421  0.105263      8.000000
  0.210526 -0.368421  0.105263      8.000000
  0.263158 -0.368421  0.105263      8.000000
  0.315789 -0.368421  0.105263      8.000000
  0.368421 -0.368421  0.105263      8.000000
  0.421053 -0.368421  0.105263      8.000000
  0.473684 -0.368421  0.105263      8.000000
  0.000000 -0.315789  0.105263      4.000000
  0.052632 -0.315789  0.105263      8.000000
  0.105263 -0.315789  0.105263      8.000000
  0.157895 -0.315789  0.105263      8.000000
  0.210526 -0.315789  0.105263      8.000000
  0.263158 -0.315789  0.105263      8.000000
  0.315789 -0.315789  0.105263      8.000000
  0.368421 -0.315789  0.105263      8.000000
  0.421053 -0.315789  0.105263      8.000000
  0.473684 -0.315789  0.105263      8.000000
  0.000000 -0.263158  0.105263      4.000000
  0.052632 -0.263158  0.105263      8.000000
  0.105263 -0.263158  0.105263      8.000000
  0.157895 -0.263158  0.105263      8.000000
  0.210526 -0.263158  0.105263      8.000000
  0.263158 -0.263158  0.105263      8.000000
  0.315789 -0.263158  0.105263      8.000000
  0.368421 -0.263158  0.105263      8.000000
  0.421053 -0.263158  0.105263      8.000000
  0.473684 -0.263158  0.105263      8.000000
  0.000000 -0.210526  0.105263      4.000000
  0.052632 -0.210526  0.105263      8.000000
  0.105263 -0.210526  0.105263      8.000000
  0.157895 -0.210526  0.105263      8.000000
  0.210526 -0.210526  0.105263      8.000000
  0.263158 -0.210526  0.105263      8.000000
  0.315789 -0.210526  0.105263      8.000000
  0.368421 -0.210526  0.105263      8.000000
  0.421053 -0.210526  0.105263      8.000000
  0.473684 -0.210526  0.105263      8.000000
  0.000000 -0.157895  0.105263      4.000000
  0.052632 -0.157895  0.105263      8.000000
  0.105263 -0.157895  0.105263      8.000000
  0.157895 -0.157895  0.105263      8.000000
  0.210526 -0.157895  0.105263      8.000000
  0.263158 -0.157895  0.105263      8.000000
  0.315789 -0.157895  0.105263      8.000000
  0.368421 -0.157895  0.105263      8.000000
  0.421053 -0.157895  0.105263      8.000000
  0.473684 -0.157895  0.105263      8.000000
  0.000000 -0.105263  0.105263      2.000000
  0.052632 -0.105263  0.105263      4.000000
  0.105263 -0.105263  0.105263      4.000000
  0.157895 -0.105263  0.105263      4.000000
  0.210526 -0.105263  0.105263      4.000000
  0.263158 -0.105263  0.105263      4.000000
  0.315789 -0.105263  0.105263      4.000000
  0.368421 -0.105263  0.105263      4.000000
  0.421053 -0.105263  0.105263      4.000000
  0.473684 -0.105263  0.105263      4.000000
  0.000000  0.157895  0.157895      2.000000
  0.052632  0.157895  0.157895      4.000000
  0.105263  0.157895  0.157895      4.000000
  0.157895  0.157895  0.157895      4.000000
  0.210526  0.157895  0.157895      4.000000
  0.263158  0.157895  0.157895      4.000000
  0.315789  0.157895  0.157895      4.000000
  0.368421  0.157895  0.157895      4.000000
  0.421053  0.157895  0.157895      4.000000
  0.473684  0.157895  0.157895      4.000000
  0.000000  0.210526  0.157895      4.000000
  0.052632  0.210526  0.157895      8.000000
  0.105263  0.210526  0.157895      8.000000
  0.157895  0.210526  0.157895      8.000000
  0.210526  0.210526  0.157895      8.000000
  0.263158  0.210526  0.157895      8.000000
  0.315789  0.210526  0.157895      8.000000
  0.368421  0.210526  0.157895      8.000000
  0.421053  0.210526  0.157895      8.000000
  0.473684  0.210526  0.157895      8.000000
  0.000000  0.263158  0.157895      4.000000
  0.052632  0.263158  0.157895      8.000000
  0.105263  0.263158  0.157895      8.000000
  0.157895  0.263158  0.157895      8.000000
  0.210526  0.263158  0.157895      8.000000
  0.263158  0.263158  0.157895      8.000000
  0.315789  0.263158  0.157895      8.000000
  0.368421  0.263158  0.157895      8.000000
  0.421053  0.263158  0.157895      8.000000
  0.473684  0.263158  0.157895      8.000000
  0.000000  0.315789  0.157895      4.000000
  0.052632  0.315789  0.157895      8.000000
  0.105263  0.315789  0.157895      8.000000
  0.157895  0.315789  0.157895      8.000000
  0.210526  0.315789  0.157895      8.000000
  0.263158  0.315789  0.157895      8.000000
  0.315789  0.315789  0.157895      8.000000
  0.368421  0.315789  0.157895      8.000000
  0.421053  0.315789  0.157895      8.000000
  0.473684  0.315789  0.157895      8.000000
  0.000000  0.368421  0.157895      4.000000
  0.052632  0.368421  0.157895      8.000000
  0.105263  0.368421  0.157895      8.000000
  0.157895  0.368421  0.157895      8.000000
  0.210526  0.368421  0.157895      8.000000
  0.263158  0.368421  0.157895      8.000000
  0.315789  0.368421  0.157895      8.000000
  0.368421  0.368421  0.157895      8.000000
  0.421053  0.368421  0.157895      8.000000
  0.473684  0.368421  0.157895      8.000000
  0.000000  0.421053  0.157895      4.000000
  0.052632  0.421053  0.157895      8.000000
  0.105263  0.421053  0.157895      8.000000
  0.157895  0.421053  0.157895      8.000000
  0.210526  0.421053  0.157895      8.000000
  0.263158  0.421053  0.157895      8.000000
  0.315789  0.421053  0.157895      8.000000
  0.368421  0.421053  0.157895      8.000000
  0.421053  0.421053  0.157895      8.000000
  0.473684  0.421053  0.157895      8.000000
  0.000000  0.473684  0.157895      4.000000
  0.052632  0.473684  0.157895      8.000000
  0.105263  0.473684  0.157895      8.000000
  0.157895  0.473684  0.157895      8.000000
  0.210526  0.473684  0.157895      8.000000
  0.263158  0.473684  0.157895      8.000000
  0.315789  0.473684  0.157895      8.000000
  0.368421  0.473684  0.157895      8.000000
  0.421053  0.473684  0.157895      8.000000
  0.473684  0.473684  0.157895      8.000000
  0.000000 -0.473684  0.157895      4.000000
  0.052632 -0.473684  0.157895      8.000000
  0.105263 -0.473684  0.157895      8.000000
  0.157895 -0.473684  0.157895      8.000000
  0.210526 -0.473684  0.157895      8.000000
  0.263158 -0.473684  0.157895      8.000000
  0.315789 -0.473684  0.157895      8.000000
  0.368421 -0.473684  0.157895      8.000000
  0.421053 -0.473684  0.157895      8.000000
  0.473684 -0.473684  0.157895      8.000000
  0.000000 -0.421053  0.157895      4.000000
  0.052632 -0.421053  0.157895      8.000000
  0.105263 -0.421053  0.157895      8.000000
  0.157895 -0.421053  0.157895      8.000000
  0.210526 -0.421053  0.157895      8.000000
  0.263158 -0.421053  0.157895      8.000000
  0.315789 -0.421053  0.157895      8.000000
  0.368421 -0.421053  0.157895      8.000000
  0.421053 -0.421053  0.157895      8.000000
  0.473684 -0.421053  0.157895      8.000000
  0.000000 -0.368421  0.157895      4.000000
  0.052632 -0.368421  0.157895      8.000000
  0.105263 -0.368421  0.157895      8.000000
  0.157895 -0.368421  0.157895      8.000000
  0.210526 -0.368421  0.157895      8.000000
  0.263158 -0.368421  0.157895      8.000000
  0.315789 -0.368421  0.157895      8.000000
  0.368421 -0.368421  0.157895      8.000000
  0.421053 -0.368421  0.157895      8.000000
  0.473684 -0.368421  0.157895      8.000000
  0.000000 -0.315789  0.157895      4.000000
  0.052632 -0.315789  0.157895      8.000000
  0.105263 -0.315789  0.157895      8.000000
  0.157895 -0.315789  0.157895      8.000000
  0.210526 -0.315789  0.157895      8.000000
  0.263158 -0.315789  0.157895      8.000000
  0.315789 -0.315789  0.157895      8.000000
  0.368421 -0.315789  0.157895      8.000000
  0.421053 -0.315789  0.157895      8.000000
  0.473684 -0.315789  0.157895      8.000000
  0.000000 -0.263158  0.157895      4.000000
  0.052632 -0.263158  0.157895      8.000000
  0.105263 -0.263158  0.157895      8.000000
  0.157895 -0.263158  0.157895      8.000000
  0.210526 -0.263158  0.157895      8.000000
  0.263158 -0.263158  0.157895      8.000000
  0.315789 -0.263158  0.157895      8.000000
  0.368421 -0.263158  0.157895      8.000000
  0.421053 -0.263158  0.157895      8.000000
[...]
  band No.  band energies     occupation 
      1     -19.8626      2.00000
      2     -19.8534      2.00000
      3     -19.8514      2.00000
      4     -19.8493      2.00000
      5     -19.8481      2.00000
      6     -19.8422      2.00000
      7     -19.8335      2.00000
      8     -19.8302      2.00000
      9     -19.7923      2.00000
     10     -19.7872      2.00000
     11     -19.7850      2.00000
     12     -19.7781      2.00000
     13     -19.7478      2.00000
     14     -19.7461      2.00000
     15     -19.7414      2.00000
     16     -19.7360      2.00000
     17     -19.7269      2.00000
     18     -19.7266      2.00000
     19     -19.7212      2.00000
     20     -19.7197      2.00000
     21     -19.6187      2.00000
     22     -19.6157      2.00000
     23     -19.6132      2.00000
     24     -19.6119      2.00000
     25     -19.6083      2.00000
     26     -19.6054      2.00000
     27     -19.6035      2.00000
     28     -19.5989      2.00000
     29     -19.5951      2.00000
     30     -19.5921      2.00000
     31     -19.5912      2.00000
     32     -19.5908      2.00000
     33     -19.5303      2.00000
     34     -19.5285      2.00000
     35     -19.5269      2.00000
     36     -19.5228      2.00000
     37     -19.5187      2.00000
     38     -19.5181      2.00000
     39     -19.5159      2.00000
     40     -19.5153      2.00000
     41      -5.9005      2.00000
     42      -5.7781      2.00000
     43      -5.7046      2.00000
     44      -5.6704      2.00000
     45      -2.4214      2.00000
     46      -2.4035      2.00000
     47      -2.3644      2.00000
     48      -2.1518      2.00000
     49       2.4883      2.00000
     50       2.6086      2.00000
     51       2.6314      2.00000
     52       2.8576      2.00000
     53       3.4156      2.00000
     54       3.5037      2.00000
     55       3.6023      2.00000
     56       3.6071      2.00000
     57       5.8800      0.00000
     58       6.0858      0.00000
     59       6.0976      0.00000
     60       6.1605      0.00000
     61       8.6037      0.00000
     62       8.6540      0.00000
     63       8.6618      0.00000
     64       8.7121      0.00000
     65       8.9214      0.00000
     66       9.0300      0.00000
     67       9.0654      0.00000

 k-point 998 :       0.3684   -0.4737    0.4737
  band No.  band energies     occupation 
      1     -19.8612      2.00000
      2     -19.8514      2.00000
      3     -19.8502      2.00000
      4     -19.8478      2.00000
      5     -19.8456      2.00000
      6     -19.8399      2.00000
      7     -19.8319      2.00000
      8     -19.8285      2.00000
      9     -19.7958      2.00000
     10     -19.7903      2.00000
     11     -19.7884      2.00000
     12     -19.7815      2.00000
     13     -19.7483      2.00000
     14     -19.7463      2.00000
     15     -19.7453      2.00000
     16     -19.7403      2.00000
     17     -19.7271      2.00000
     18     -19.7270      2.00000
     19     -19.7245      2.00000
     20     -19.7233      2.00000
     21     -19.6146      2.00000
     22     -19.6124      2.00000
     23     -19.6120      2.00000
     24     -19.6112      2.00000
     25     -19.6039      2.00000
     26     -19.6021      2.00000
     27     -19.5991      2.00000
     28     -19.5971      2.00000
     29     -19.5928      2.00000
     30     -19.5907      2.00000
     31     -19.5892      2.00000
     32     -19.5877      2.00000
     33     -19.5325      2.00000
     34     -19.5304      2.00000
     35     -19.5287      2.00000
     36     -19.5252      2.00000
     37     -19.5210      2.00000
     38     -19.5201      2.00000
     39     -19.5174      2.00000
     40     -19.5170      2.00000
     41      -5.8496      2.00000
     42      -5.7485      2.00000
     43      -5.6749      2.00000
     44      -5.6650      2.00000
     45      -2.5319      2.00000
     46      -2.5087      2.00000
     47      -2.4868      2.00000
     48      -2.3071      2.00000
     49       2.8640      2.00000
     50       2.9616      2.00000
     51       2.9756      2.00000
     52       3.2084      2.00000
     53       3.4438      2.00000
     54       3.5196      2.00000
     55       3.6004      2.00000
     56       3.6214      2.00000
     57       5.5533      0.00000
     58       5.7749      0.00000
     59       5.7755      0.00000
     60       5.8493      0.00000
     61       8.5853      0.00000
     62       8.6545      0.00000
     63       8.6607      0.00000
     64       8.7158      0.00000
     65       8.8461      0.00000
     66       8.9316      0.00000
     67       8.9392      0.00000

 k-point 999 :       0.4211   -0.4737    0.4737
  band No.  band energies     occupation 
      1     -19.8603      2.00000
      2     -19.8498      2.00000
      3     -19.8493      2.00000
      4     -19.8466      2.00000
      5     -19.8435      2.00000
      6     -19.8380      2.00000
      7     -19.8306      2.00000
      8     -19.8273      2.00000
      9     -19.7986      2.00000
     10     -19.7928      2.00000
     11     -19.7911      2.00000
     12     -19.7841      2.00000
     13     -19.7486      2.00000
     14     -19.7481      2.00000
     15     -19.7465      2.00000
     16     -19.7434      2.00000
     17     -19.7274      2.00000
     18     -19.7272      2.00000
     19     -19.7269      2.00000
     20     -19.7258      2.00000
     21     -19.6121      2.00000
     22     -19.6114      2.00000
     23     -19.6111      2.00000
     24     -19.6093      2.00000
     25     -19.6003      2.00000
     26     -19.5995      2.00000
     27     -19.5965      2.00000
     28     -19.5957      2.00000
     29     -19.5907      2.00000
     30     -19.5902      2.00000
     31     -19.5871      2.00000
     32     -19.5852      2.00000
     33     -19.5343      2.00000
     34     -19.5319      2.00000
     35     -19.5301      2.00000
     36     -19.5272      2.00000
     37     -19.5230      2.00000
     38     -19.5217      2.00000
     39     -19.5185      2.00000
     40     -19.5184      2.00000
     41      -5.8036      2.00000
     42      -5.7260      2.00000
     43      -5.6738      2.00000
     44      -5.6471      2.00000
     45      -2.6203      2.00000
     46      -2.5732      2.00000
     47      -2.5600      2.00000
     48      -2.4286      2.00000
     49       3.2174      2.00000
     50       3.2719      2.00000
     51       3.2756      2.00000
     52       3.4679      2.00000
     53       3.4917      2.00000
     54       3.5345      2.00000
     55       3.5964      2.00000
     56       3.6301      2.00000
     57       5.2783      0.00000
     58       5.4837      0.00000
     59       5.4939      0.00000
     60       5.5315      0.00000
     61       8.6012      0.00000
     62       8.6463      0.00000
     63       8.6852      0.00000
     64       8.7267      0.00000
     65       8.7765      0.00000
     66       8.8393      0.00000
     67       8.8858      0.00000

 k-point *** :       0.4737   -0.4737    0.4737
  band No.  band energies     occupation 
      1     -19.8597      2.00000
      2     -19.8489      2.00000
      3     -19.8489      2.00000
      4     -19.8459      2.00000
      5     -19.8422      2.00000
      6     -19.8370      2.00000
      7     -19.8298      2.00000
      8     -19.8267      2.00000
      9     -19.8001      2.00000
     10     -19.7942      2.00000
     11     -19.7925      2.00000
     12     -19.7856      2.00000
     13     -19.7496      2.00000
     14     -19.7487      2.00000
     15     -19.7465      2.00000
     16     -19.7451      2.00000
     17     -19.7281      2.00000
     18     -19.7274      2.00000
     19     -19.7272      2.00000
     20     -19.7272      2.00000
     21     -19.6119      2.00000
     22     -19.6110      2.00000
     23     -19.6098      2.00000
     24     -19.6079      2.00000
     25     -19.5983      2.00000
     26     -19.5981      2.00000
     27     -19.5964      2.00000
     28     -19.5939      2.00000
     29     -19.5900      2.00000
     30     -19.5893      2.00000
     31     -19.5858      2.00000
     32     -19.5838      2.00000
     33     -19.5352      2.00000
     34     -19.5328      2.00000
     35     -19.5307      2.00000
     36     -19.5284      2.00000
     37     -19.5241      2.00000
     38     -19.5225      2.00000
     39     -19.5192      2.00000
     40     -19.5191      2.00000
     41      -5.7720      2.00000
     42      -5.7137      2.00000
     43      -5.6831      2.00000
     44      -5.6342      2.00000
     45      -2.6663      2.00000
     46      -2.6180      2.00000
     47      -2.5716      2.00000
     48      -2.5058      2.00000
     49       3.4431      2.00000
     50       3.4821      2.00000
     51       3.4847      2.00000
     52       3.5075      2.00000
     53       3.5574      2.00000
     54       3.5913      2.00000
     55       3.5923      2.00000
     56       3.6431      2.00000
     57       5.1554      0.00000
     58       5.2632      0.00000
     59       5.2995      0.00000
     60       5.3117      0.00000
     61       8.6201      0.00000
     62       8.6367      0.00000
     63       8.7140      0.00000
     64       8.7314      0.00000
     65       8.7529      0.00000
     66       8.7842      0.00000
     67       8.8605      0.00000


--------------------------------------------------------------------------------------------------------


 soft charge-density along one line, spin component           1
         0         1         2         3         4         5         6         7         8         9
 total charge-density along one line
 
 pseudopotential strength for first ion, spin component:           1
-22.252   0.000  -0.000   0.002  -0.000   4.370  -0.000   0.000
  0.000 -22.252   0.001   0.000  -0.002  -0.000   4.370  -0.001
 -0.000   0.001 -22.250   0.000   0.000   0.000  -0.001   4.370
  0.002   0.000   0.000 -22.252   0.000  -0.001  -0.000  -0.000
 -0.000  -0.002   0.000   0.000 -22.251   0.000   0.001  -0.000
  4.370  -0.000   0.000  -0.001   0.000   1.949   0.000  -0.000
 -0.000   4.370  -0.001  -0.000   0.001   0.000   1.950   0.000
  0.000  -0.001   4.370  -0.000  -0.000  -0.000   0.000   1.949
 -0.001  -0.000  -0.000   4.370  -0.000   0.001   0.000   0.000
  0.000   0.001  -0.000  -0.000   4.370   0.000  -0.001   0.000
  0.000  -0.001  -0.000   0.000   0.000  -0.000   0.001   0.000
  0.000  -0.001  -0.000   0.000   0.000  -0.000   0.001   0.000
  0.001   0.000  -0.000   0.001  -0.000  -0.002   0.000   0.000
  0.001  -0.000   0.000   0.001   0.000  -0.001   0.000   0.000
 -0.000   0.001  -0.000   0.000   0.000  -0.000  -0.001   0.001
  0.001   0.000  -0.000   0.002  -0.000  -0.003   0.000   0.000
  0.002  -0.000   0.000   0.001   0.000  -0.001   0.000   0.000
  0.000   0.002  -0.000   0.000   0.001  -0.000  -0.001   0.001
 total augmentation occupancy for first ion, spin component:           1
  2.006   0.000  -0.000   0.001   0.000   0.018   0.000  -0.000   0.001   0.000  -0.000   0.000  -0.004  -0.052   0.000   0.001
  0.000   2.006   0.000  -0.000  -0.001   0.000   0.018   0.001  -0.000  -0.001   0.009  -0.006  -0.000   0.000  -0.052   0.000
  0.000   0.000   2.003   0.000   0.000   0.000   0.001   0.009   0.000   0.000   0.000  -0.000   0.000  -0.000  -0.001   0.000
  0.001   0.000   0.000   2.006   0.000   0.001   0.000   0.000   0.018  -0.000   0.000   0.000  -0.052  -0.004   0.000   0.015
  0.000  -0.001   0.000   0.000   2.003   0.000  -0.001   0.000   0.000   0.009  -0.000   0.000   0.000   0.000   0.001   0.000
  0.018   0.000  -0.000   0.001   0.000   0.042   0.000   0.000   0.002   0.000  -0.000   0.000  -0.015  -0.218   0.000   0.004
  0.000   0.018   0.001   0.000  -0.001   0.000   0.043   0.001   0.000  -0.002   0.023  -0.009  -0.000  -0.000  -0.218  -0.000
 -0.000   0.001   0.009   0.000   0.000   0.000   0.001   0.012   0.000   0.000   0.000  -0.000   0.000   0.000  -0.003   0.000
  0.001   0.000   0.000   0.018   0.000   0.002  -0.000   0.000   0.042  -0.000   0.000   0.000  -0.218  -0.015   0.000   0.037
 -0.000  -0.001   0.000   0.000   0.009   0.000  -0.002   0.000   0.000   0.012  -0.001   0.000   0.000   0.000   0.004   0.000
 -0.000   0.009   0.000   0.000  -0.000  -0.000   0.023   0.000   0.000  -0.001   3.536  -1.055   0.000   0.000  -0.064   0.000
 -0.000  -0.006  -0.000   0.000   0.000   0.000  -0.009  -0.000   0.000   0.000  -1.055   0.488   0.000  -0.000   0.033   0.000
 -0.004   0.000  -0.000  -0.052   0.000  -0.015  -0.000   0.000  -0.218   0.000   0.000   0.000   2.027   0.076  -0.000  -0.337
 -0.052   0.000  -0.000  -0.004   0.000  -0.218  -0.000  -0.000  -0.015   0.000  -0.000   0.000   0.076   2.027   0.000  -0.020
  0.000  -0.052  -0.001   0.000   0.001   0.000  -0.218  -0.003  -0.000   0.004  -0.064   0.033   0.000   0.000   2.021   0.000
  0.001   0.000   0.000   0.015   0.000   0.004   0.000   0.000   0.037   0.000   0.000   0.000  -0.337  -0.020  -0.000   0.064
  0.015   0.000   0.000   0.001   0.000   0.037   0.000  -0.000   0.004   0.000   0.000  -0.000  -0.020  -0.337   0.000   0.005
  0.000   0.015   0.001   0.000  -0.001   0.000   0.037   0.000   0.000  -0.001   0.018  -0.009  -0.000   0.000  -0.336  -0.000


------------------------ aborting loop because EDIFF is reached ----------------------------------------


    CHARGE:  cpu time  129.29: real time  129.32
    FORLOC:  cpu time    0.02: real time    0.02
    FORNL :  cpu time  415.52: real time  415.59
    STRESS:  cpu time  377.41: real time  377.48
    FORCOR:  cpu time    0.19: real time    0.19
    FORHAR:  cpu time    0.05: real time    0.05
    MIXING:  cpu time    0.01: real time    0.01

  FORCE on cell =-STRESS in cart. coord.  units (eV):
  Direction    XX          YY          ZZ          XY          YZ          ZX
  --------------------------------------------------------------------------------------
  Alpha Z   517.60695   517.60695   517.60695
  Ewald   -3584.91309 -3581.33883 -3581.33883     0.00000    50.15318     0.00000
  Hartree  2018.79989  2021.05840  2021.05840    -0.00000    29.61195    -0.00000
  E(xc)    -659.15711  -659.15415  -659.15415     0.00000     0.04615     0.00000
  Local    -108.43381  -114.22728  -114.22728     0.00000   -79.08875     0.00000
  n-local   229.97515   230.54464   229.51488    -0.34201     0.75098    -2.48594
  augment  1007.97116  1007.94630  1007.94630     0.00000    -0.30985    -0.00000
  Kinetic   580.72830   577.78600   583.63059    -0.34829    -0.64330    -5.49279
  Fock        0.00000     0.00000     0.00000     0.00000     0.00000     0.00000
  -------------------------------------------------------------------------------------
  Total       2.57745     2.62945     2.62945     0.00000     0.52034     0.00000
  in kB      22.79879    23.25874    23.25874     0.00000     4.60265     0.00000
  external pressure =       23.11 kB  Pullay stress =        0.00 kB


 VOLUME and BASIS-vectors are now :
 -----------------------------------------------------------------------------
  energy-cutoff  :      387.87
  volume of cell :      181.13
      direct lattice vectors                 reciprocal lattice vectors
     5.658000000  0.000000000  0.000000000     0.176740898  0.000000000  0.000000000
     0.000000000  5.658000000  0.000000000     0.000000000  0.176740898  0.000000000
     0.000000000  0.000000000  5.658000000     0.000000000  0.000000000  0.176740898

  length of vectors
     5.658000000  5.658000000  5.658000000     0.176740898  0.176740898  0.176740898


 FORCES acting on ions
    electron-ion (+dipol)            ewald-force                    non-local-force                 convergence-correction
 -----------------------------------------------------------------------------------------------
   -.249E+02 0.152E-05 0.340E-04   0.258E+02 -.853E-13 -.568E-13   -.224E+00 0.000E+00 -.243E-16   0.212E-01 -.202E-12 0.465E-14
   0.745E+01 -.400E-11 0.107E-10   -.751E+01 -.284E-13 -.853E-13   0.156E-01 0.000E+00 0.347E-17   -.211E-02 0.102E-12 -.554E-13
   0.745E+01 -.340E-11 0.517E-11   -.751E+01 -.284E-13 -.853E-13   0.156E-01 0.000E+00 0.694E-17   -.211E-02 -.205E-12 0.280E-13
   -.338E+01 0.358E-11 0.223E-11   0.395E+01 -.284E-13 -.853E-13   -.463E+00 0.000E+00 0.173E-16   -.235E-01 0.158E-13 0.347E-13
   0.300E+01 0.926E+01 0.926E+01   -.333E+01 -.953E+01 -.953E+01   0.165E+00 0.151E+00 0.151E+00   0.306E-02 -.173E-01 -.173E-01
   0.371E+01 0.893E+01 -.893E+01   -.403E+01 -.919E+01 0.919E+01   0.165E+00 0.143E+00 -.143E+00   0.589E-03 -.135E-01 0.135E-01
   0.371E+01 -.893E+01 0.893E+01   -.403E+01 0.919E+01 -.919E+01   0.165E+00 -.143E+00 0.143E+00   0.589E-03 0.135E-01 -.135E-01
   0.300E+01 -.926E+01 -.926E+01   -.333E+01 0.953E+01 0.953E+01   0.165E+00 -.151E+00 -.151E+00   0.306E-02 0.173E-01 0.173E-01
 -----------------------------------------------------------------------------------------------
   -.146E-02 0.152E-05 0.340E-04   -.289E-13 0.000E+00 -.853E-13   0.401E-02 0.833E-16 0.278E-16   0.756E-03 0.723E-12 0.566E-12
 
 
 POSITION                                       TOTAL-FORCE (eV/Angst)
 -----------------------------------------------------------------------------------
      1.35792      1.41450      1.41450         0.667394      0.000000      0.000000
      4.24350      4.24350      1.41450        -0.045528      0.000000      0.000000
      4.24350      1.41450      4.24350        -0.045528      0.000000      0.000000
      1.41450      4.24350      4.24350         0.078896      0.000000     -0.000000
      0.00000      0.00000      0.00000        -0.168026     -0.136168     -0.136168
      2.82900      2.82900      0.00000        -0.159592     -0.122176      0.122176
      2.82900      0.00000      2.82900        -0.159592      0.122176     -0.122176
      0.00000      2.82900      2.82900        -0.168026      0.136168      0.136168
 -----------------------------------------------------------------------------------
    total drift:                                0.003300      0.000002      0.000034


--------------------------------------------------------------------------------------------------------



  FREE ENERGIE OF THE ION-ELECTRON SYSTEM (eV)
  ---------------------------------------------------
  free  energy   TOTEN  =       -36.02200490 eV

  energy  without entropy=      -36.02200490  energy(sigma->0) =      -36.02200490
 


--------------------------------------------------------------------------------------------------------


    POTLOK:  cpu time    0.21: real time    0.24


--------------------------------------------------------------------------------------------------------


     LOOP+:  cpu time14509.90: real time14513.57
    4ORBIT:  cpu time    0.00: real time    0.00
 BZINTS: Fermi energy:  5.056077;112.000000 electrons
         Band energy:***********;  BLOECHL correction: -0.000000

 total amount of memory used by VASP on root node  4042145. kBytes
========================================================================

   base      :      30000. kBytes
   nonl-proj :     455156. kBytes
   fftplans  :       6604. kBytes
   grid      :      10517. kBytes
   one-center:        124. kBytes
   wavefun   :    3539744. kBytes
 
  
  
 General timing and accounting informations for this job:
 ========================================================
  
                  Total CPU time used (sec):    14611.011
                            User time (sec):    14587.400
                          System time (sec):       23.610
                         Elapsed time (sec):    14615.345
  
                   Maximum memory used (kb):    10978936.
                   Average memory used (kb):           0.
  
                          Minor page faults:       769449
                          Major page faults:            9
                 Voluntary context switches:          715
